<?xml version="1.0" encoding="UTF-8"?>

<!-- generated on 11/26/19 16:37:29 by Eclipse SUMO GUI Version 1.3.1
<configuration xmlns:xsi="http://www.w3.org/2001/XMLSchema-instance" xsi:noNamespaceSchemaLocation="http://sumo.dlr.de/xsd/sumoConfiguration.xsd">

    <input>
        <net-file value="simpleNetwork.net.xml"/>
        <route-files value="od_route_file.odtrips.rou.xml"/>
    </input>

    <output>
        <tripinfo-output value="tripinfo.xml"/>
    </output>

    <time>
        <begin value="0"/>
        <end value="2000"/>
    </time>

    <traci_server>
        <remote-port value="49827"/>
    </traci_server>

</configuration>
-->

<tripinfos xmlns:xsi="http://www.w3.org/2001/XMLSchema-instance" xsi:noNamespaceSchemaLocation="http://sumo.dlr.de/xsd/tripinfo_file.xsd">
    <tripinfo id="57" depart="27.00" departLane="NWB2four-arm_LTL_0" departPos="5.10" departSpeed="14.72" departDelay="-0.48" arrival="321.00" arrivalLane="incoming2EB_0" arrivalPos="304.25" arrivalSpeed="14.04" duration="294.00" routeLength="1431.94" waitingTime="182.00" waitingCount="2" stopTime="0.00" timeLoss="196.04" rerouteNo="0" devices="tripinfo_57" vType="DEFAULT_VEHTYPE" speedFactor="1.06" vaporized=""/>
    <tripinfo id="17" depart="163.00" departLane="WB2four-arm_LTL_0" departPos="5.10" departSpeed="13.03" departDelay="-0.02" arrival="395.00" arrivalLane="incoming2EB_0" arrivalPos="304.25" arrivalSpeed="12.90" duration="232.00" routeLength="1879.16" waitingTime="69.00" waitingCount="2" stopTime="0.00" timeLoss="86.86" rerouteNo="0" devices="tripinfo_17" vType="DEFAULT_VEHTYPE" speedFactor="0.94" vaporized=""/>
    <tripinfo id="46" depart="353.00" departLane="NWB2four-arm_LTL_0" departPos="5.10" departSpeed="14.03" departDelay="-0.09" arrival="475.00" arrivalLane="four-arm2WB_0" arrivalPos="759.55" arrivalSpeed="13.18" duration="122.00" routeLength="1077.79" waitingTime="37.00" waitingCount="1" stopTime="0.00" timeLoss="44.62" rerouteNo="0" devices="tripinfo_46" vType="DEFAULT_VEHTYPE" speedFactor="1.01" vaporized=""/>
    <tripinfo id="47" depart="363.00" departLane="NWB2four-arm_LTL_1" departPos="5.10" departSpeed="15.04" departDelay="-0.29" arrival="475.00" arrivalLane="four-arm2WB_1" arrivalPos="759.55" arrivalSpeed="13.92" duration="112.00" routeLength="1077.79" waitingTime="29.00" waitingCount="1" stopTime="0.00" timeLoss="38.60" rerouteNo="0" devices="tripinfo_47" vType="DEFAULT_VEHTYPE" speedFactor="1.08" vaporized=""/>
    <tripinfo id="40" depart="410.00" departLane="WB2four-arm_LTL_0" departPos="5.10" departSpeed="11.54" departDelay="-0.68" arrival="558.00" arrivalLane="four-arm2NWB_0" arrivalPos="313.79" arrivalSpeed="11.34" duration="148.00" routeLength="1087.89" waitingTime="43.00" waitingCount="1" stopTime="0.00" timeLoss="53.22" rerouteNo="0" devices="tripinfo_40" vType="DEFAULT_VEHTYPE" speedFactor="0.83" vaporized=""/>
    <tripinfo id="31" depart="423.00" departLane="WB2four-arm_LTL_1" departPos="5.10" departSpeed="14.53" departDelay="-0.68" arrival="620.00" arrivalLane="T2SEB_0" arrivalPos="296.94" arrivalSpeed="13.78" duration="197.00" routeLength="2221.49" waitingTime="29.00" waitingCount="1" stopTime="0.00" timeLoss="42.76" rerouteNo="0" devices="tripinfo_31" vType="DEFAULT_VEHTYPE" speedFactor="1.05" vaporized=""/>
    <tripinfo id="7" depart="401.00" departLane="EB2incoming_0" departPos="5.10" departSpeed="14.31" departDelay="-0.49" arrival="661.00" arrivalLane="four-arm2WB_0" arrivalPos="759.55" arrivalSpeed="13.22" duration="260.00" routeLength="1879.21" waitingTime="111.00" waitingCount="2" stopTime="0.00" timeLoss="128.30" rerouteNo="0" devices="tripinfo_7" vType="DEFAULT_VEHTYPE" speedFactor="1.03" vaporized=""/>
    <tripinfo id="37" depart="557.00" departLane="WB2four-arm_LTL_0" departPos="5.10" departSpeed="11.90" departDelay="-0.09" arrival="668.00" arrivalLane="four-arm2NWB_0" arrivalPos="313.79" arrivalSpeed="11.88" duration="111.00" routeLength="1087.89" waitingTime="8.00" waitingCount="1" stopTime="0.00" timeLoss="18.38" rerouteNo="0" devices="tripinfo_37" vType="DEFAULT_VEHTYPE" speedFactor="0.86" vaporized=""/>
    <tripinfo id="1" depart="476.00" departLane="NEB2incoming_LTL_0" departPos="5.10" departSpeed="13.03" departDelay="-0.94" arrival="669.00" arrivalLane="four-arm2WB_0" arrivalPos="759.55" arrivalSpeed="12.15" duration="193.00" routeLength="1895.02" waitingTime="27.00" waitingCount="2" stopTime="0.00" timeLoss="46.40" rerouteNo="0" devices="tripinfo_1" vType="DEFAULT_VEHTYPE" speedFactor="0.94" vaporized=""/>
    <tripinfo id="24" depart="436.00" departLane="WB2four-arm_LTL_0" departPos="5.10" departSpeed="12.31" departDelay="-0.43" arrival="705.00" arrivalLane="incoming2EB_0" arrivalPos="304.25" arrivalSpeed="12.28" duration="269.00" routeLength="1879.16" waitingTime="98.00" waitingCount="2" stopTime="0.00" timeLoss="116.13" rerouteNo="0" devices="tripinfo_24" vType="DEFAULT_VEHTYPE" speedFactor="0.89" vaporized=""/>
    <tripinfo id="13" depart="666.00" departLane="SEB2T_0" departPos="5.10" departSpeed="15.15" departDelay="-0.67" arrival="878.00" arrivalLane="four-arm2WB_0" arrivalPos="759.55" arrivalSpeed="13.88" duration="212.00" routeLength="2184.97" waitingTime="45.00" waitingCount="2" stopTime="0.00" timeLoss="65.93" rerouteNo="0" devices="tripinfo_13" vType="DEFAULT_VEHTYPE" speedFactor="1.09" vaporized=""/>
    <tripinfo id="3" depart="754.00" departLane="NEB2incoming_LTL_0" departPos="5.10" departSpeed="14.54" departDelay="-0.69" arrival="894.00" arrivalLane="four-arm2WB_0" arrivalPos="759.55" arrivalSpeed="14.07" duration="140.00" routeLength="1895.02" waitingTime="0.00" waitingCount="0" stopTime="0.00" timeLoss="8.38" rerouteNo="0" devices="tripinfo_3" vType="DEFAULT_VEHTYPE" speedFactor="1.05" vaporized=""/>
    <tripinfo id="38" depart="833.00" departLane="WB2four-arm_LTL_1" departPos="5.10" departSpeed="12.87" departDelay="-0.34" arrival="931.00" arrivalLane="four-arm2NWB_0" arrivalPos="313.79" arrivalSpeed="12.41" duration="98.00" routeLength="1087.89" waitingTime="3.00" waitingCount="1" stopTime="0.00" timeLoss="11.90" rerouteNo="0" devices="tripinfo_38" vType="DEFAULT_VEHTYPE" speedFactor="0.93" vaporized=""/>
    <tripinfo id="25" depart="785.00" departLane="WB2four-arm_LTL_1" departPos="5.10" departSpeed="15.60" departDelay="-0.27" arrival="939.00" arrivalLane="T2SEB_0" arrivalPos="296.94" arrivalSpeed="15.52" duration="154.00" routeLength="2221.49" waitingTime="0.00" waitingCount="0" stopTime="0.00" timeLoss="9.51" rerouteNo="0" devices="tripinfo_25" vType="DEFAULT_VEHTYPE" speedFactor="1.12" vaporized=""/>
    <tripinfo id="15" depart="724.00" departLane="WB2four-arm_LTL_0" departPos="5.10" departSpeed="14.26" departDelay="-0.95" arrival="962.00" arrivalLane="incoming2EB_0" arrivalPos="304.25" arrivalSpeed="13.71" duration="238.00" routeLength="1879.16" waitingTime="88.00" waitingCount="2" stopTime="0.00" timeLoss="106.09" rerouteNo="0" devices="tripinfo_15" vType="DEFAULT_VEHTYPE" speedFactor="1.03" vaporized=""/>
    <tripinfo id="8" depart="819.00" departLane="EB2incoming_0" departPos="5.10" departSpeed="13.77" departDelay="-0.88" arrival="1001.00" arrivalLane="four-arm2WB_0" arrivalPos="759.55" arrivalSpeed="13.06" duration="182.00" routeLength="1879.21" waitingTime="31.00" waitingCount="1" stopTime="0.00" timeLoss="45.34" rerouteNo="0" devices="tripinfo_8" vType="DEFAULT_VEHTYPE" speedFactor="0.99" vaporized=""/>
    <tripinfo id="22" depart="842.00" departLane="WB2four-arm_LTL_1" departPos="5.10" departSpeed="12.20" departDelay="-0.52" arrival="1076.00" arrivalLane="incoming2EB_0" arrivalPos="304.25" arrivalSpeed="11.61" duration="234.00" routeLength="1879.16" waitingTime="62.00" waitingCount="2" stopTime="0.00" timeLoss="79.40" rerouteNo="0" devices="tripinfo_22" vType="DEFAULT_VEHTYPE" speedFactor="0.88" vaporized=""/>
    <tripinfo id="51" depart="1034.00" departLane="NWB2four-arm_LTL_0" departPos="5.10" departSpeed="16.09" departDelay="-0.54" arrival="1106.00" arrivalLane="four-arm2WB_0" arrivalPos="759.55" arrivalSpeed="16.02" duration="72.00" routeLength="1077.79" waitingTime="0.00" waitingCount="0" stopTime="0.00" timeLoss="4.51" rerouteNo="0" devices="tripinfo_51" vType="DEFAULT_VEHTYPE" speedFactor="1.16" vaporized=""/>
    <tripinfo id="55" depart="891.00" departLane="NWB2four-arm_LTL_0" departPos="5.10" departSpeed="13.08" departDelay="-0.90" arrival="1114.00" arrivalLane="incoming2EB_0" arrivalPos="304.25" arrivalSpeed="13.00" duration="223.00" routeLength="1431.94" waitingTime="99.00" waitingCount="2" stopTime="0.00" timeLoss="112.54" rerouteNo="0" devices="tripinfo_55" vType="DEFAULT_VEHTYPE" speedFactor="0.94" vaporized=""/>
    <tripinfo id="59" depart="997.00" departLane="NWB2four-arm_LTL_0" departPos="5.10" departSpeed="13.00" departDelay="-0.76" arrival="1219.00" arrivalLane="incoming2EB_0" arrivalPos="304.25" arrivalSpeed="12.26" duration="222.00" routeLength="1431.94" waitingTime="97.00" waitingCount="2" stopTime="0.00" timeLoss="110.88" rerouteNo="0" devices="tripinfo_59" vType="DEFAULT_VEHTYPE" speedFactor="0.94" vaporized=""/>
    <tripinfo id="58" depart="1184.00" departLane="NWB2four-arm_LTL_1" departPos="5.10" departSpeed="14.03" departDelay="-0.71" arrival="1323.00" arrivalLane="incoming2EB_0" arrivalPos="304.25" arrivalSpeed="13.43" duration="139.00" routeLength="1431.94" waitingTime="20.00" waitingCount="1" stopTime="0.00" timeLoss="35.93" rerouteNo="0" devices="tripinfo_58" vType="DEFAULT_VEHTYPE" speedFactor="1.01" vaporized=""/>
    <tripinfo id="52" depart="1130.00" departLane="NWB2four-arm_LTL_0" departPos="5.10" departSpeed="14.14" departDelay="-0.77" arrival="1346.00" arrivalLane="four-arm2WB_0" arrivalPos="759.55" arrivalSpeed="13.32" duration="216.00" routeLength="1077.79" waitingTime="130.00" waitingCount="1" stopTime="0.00" timeLoss="138.79" rerouteNo="0" devices="tripinfo_52" vType="DEFAULT_VEHTYPE" speedFactor="1.02" vaporized=""/>
    <tripinfo id="62" depart="1238.00" departLane="NWB2four-arm_LTL_1" departPos="5.10" departSpeed="13.54" departDelay="-0.90" arrival="1393.00" arrivalLane="incoming2EB_0" arrivalPos="304.25" arrivalSpeed="12.99" duration="155.00" routeLength="1431.94" waitingTime="36.00" waitingCount="2" stopTime="0.00" timeLoss="48.72" rerouteNo="0" devices="tripinfo_62" vType="DEFAULT_VEHTYPE" speedFactor="0.98" vaporized=""/>
    <tripinfo id="33" depart="1302.00" departLane="WB2four-arm_LTL_0" departPos="5.10" departSpeed="11.47" departDelay="-0.21" arrival="1520.00" arrivalLane="T2SEB_0" arrivalPos="296.94" arrivalSpeed="10.79" duration="218.00" routeLength="2221.49" waitingTime="6.00" waitingCount="1" stopTime="0.00" timeLoss="22.45" rerouteNo="0" devices="tripinfo_33" vType="DEFAULT_VEHTYPE" speedFactor="0.83" vaporized=""/>
    <tripinfo id="5" depart="1283.00" departLane="EB2incoming_0" departPos="5.10" departSpeed="12.36" departDelay="-0.82" arrival="1524.00" arrivalLane="four-arm2WB_0" arrivalPos="759.55" arrivalSpeed="11.99" duration="241.00" routeLength="1879.21" waitingTime="70.00" waitingCount="2" stopTime="0.00" timeLoss="88.92" rerouteNo="0" devices="tripinfo_5" vType="DEFAULT_VEHTYPE" speedFactor="0.89" vaporized=""/>
