<?xml version="1.0" encoding="UTF-8"?>

<!-- generated on 11/25/19 16:02:06 by Eclipse SUMO GUI Version 1.3.1
<configuration xmlns:xsi="http://www.w3.org/2001/XMLSchema-instance" xsi:noNamespaceSchemaLocation="http://sumo.dlr.de/xsd/sumoConfiguration.xsd">

    <input>
        <net-file value="simpleNetwork.net.xml"/>
        <route-files value="od_route_file.odtrips.rou.xml"/>
    </input>

    <output>
        <tripinfo-output value="tripinfo.xml"/>
    </output>

    <time>
        <begin value="0"/>
        <end value="2000"/>
    </time>

    <traci_server>
        <remote-port value="55952"/>
    </traci_server>

</configuration>
-->

<tripinfos xmlns:xsi="http://www.w3.org/2001/XMLSchema-instance" xsi:noNamespaceSchemaLocation="http://sumo.dlr.de/xsd/tripinfo_file.xsd">
    <tripinfo id="47" depart="363.00" departLane="NWB2four-arm_LTL_1" departPos="5.10" departSpeed="15.04" departDelay="-0.29" arrival="459.00" arrivalLane="four-arm2WB_1" arrivalPos="759.55" arrivalSpeed="15.00" duration="96.00" routeLength="1077.79" waitingTime="13.00" waitingCount="1" stopTime="0.00" timeLoss="22.49" rerouteNo="0" devices="tripinfo_47" vType="DEFAULT_VEHTYPE" speedFactor="1.08" vaporized=""/>
    <tripinfo id="46" depart="353.00" departLane="NWB2four-arm_LTL_0" departPos="5.10" departSpeed="14.03" departDelay="-0.09" arrival="460.00" arrivalLane="four-arm2WB_0" arrivalPos="759.55" arrivalSpeed="13.66" duration="107.00" routeLength="1077.79" waitingTime="21.00" waitingCount="1" stopTime="0.00" timeLoss="28.83" rerouteNo="0" devices="tripinfo_46" vType="DEFAULT_VEHTYPE" speedFactor="1.01" vaporized=""/>
    <tripinfo id="57" depart="27.00" departLane="NWB2four-arm_LTL_0" departPos="5.10" departSpeed="14.72" departDelay="-0.48" arrival="596.00" arrivalLane="incoming2EB_0" arrivalPos="304.25" arrivalSpeed="13.51" duration="569.00" routeLength="1412.33" waitingTime="462.00" waitingCount="2" stopTime="0.00" timeLoss="473.42" rerouteNo="0" devices="tripinfo_57" vType="DEFAULT_VEHTYPE" speedFactor="1.06" vaporized=""/>
    <tripinfo id="17" depart="163.00" departLane="WB2four-arm_LTL_0" departPos="5.10" departSpeed="13.03" departDelay="-0.02" arrival="617.00" arrivalLane="incoming2EB_0" arrivalPos="304.25" arrivalSpeed="12.90" duration="454.00" routeLength="1858.09" waitingTime="301.00" waitingCount="1" stopTime="0.00" timeLoss="311.26" rerouteNo="0" devices="tripinfo_17" vType="DEFAULT_VEHTYPE" speedFactor="0.94" vaporized=""/>
    <tripinfo id="40" depart="410.00" departLane="WB2four-arm_LTL_1" departPos="5.10" departSpeed="11.54" departDelay="-0.68" arrival="812.00" arrivalLane="four-arm2NWB_0" arrivalPos="313.79" arrivalSpeed="10.24" duration="402.00" routeLength="1068.24" waitingTime="301.00" waitingCount="1" stopTime="0.00" timeLoss="309.62" rerouteNo="0" devices="tripinfo_40" vType="DEFAULT_VEHTYPE" speedFactor="0.83" vaporized=""/>
    <tripinfo id="7" depart="401.00" departLane="EB2incoming_0" departPos="5.10" departSpeed="14.31" departDelay="-0.49" arrival="860.00" arrivalLane="four-arm2WB_0" arrivalPos="759.55" arrivalSpeed="13.52" duration="459.00" routeLength="1879.21" waitingTime="310.00" waitingCount="2" stopTime="0.00" timeLoss="327.13" rerouteNo="0" devices="tripinfo_7" vType="DEFAULT_VEHTYPE" speedFactor="1.03" vaporized=""/>
    <tripinfo id="31" depart="423.00" departLane="WB2four-arm_LTL_1" departPos="5.10" departSpeed="14.53" departDelay="-0.68" arrival="909.00" arrivalLane="T2SEB_0" arrivalPos="296.94" arrivalSpeed="13.78" duration="486.00" routeLength="2221.49" waitingTime="313.00" waitingCount="2" stopTime="0.00" timeLoss="331.79" rerouteNo="0" devices="tripinfo_31" vType="DEFAULT_VEHTYPE" speedFactor="1.05" vaporized=""/>
    <tripinfo id="1" depart="476.00" departLane="NEB2incoming_LTL_0" departPos="5.10" departSpeed="13.03" departDelay="-0.94" arrival="932.00" arrivalLane="four-arm2WB_0" arrivalPos="759.55" arrivalSpeed="11.91" duration="456.00" routeLength="1885.86" waitingTime="301.00" waitingCount="1" stopTime="0.00" timeLoss="311.33" rerouteNo="0" devices="tripinfo_1" vType="DEFAULT_VEHTYPE" speedFactor="0.94" vaporized=""/>
    <tripinfo id="15" depart="724.00" departLane="WB2four-arm_LTL_0" departPos="5.10" departSpeed="14.26" departDelay="-0.95" arrival="1013.00" arrivalLane="incoming2EB_0" arrivalPos="304.25" arrivalSpeed="13.00" duration="289.00" routeLength="1879.16" waitingTime="138.00" waitingCount="2" stopTime="0.00" timeLoss="156.72" rerouteNo="0" devices="tripinfo_15" vType="DEFAULT_VEHTYPE" speedFactor="1.03" vaporized=""/>
    <tripinfo id="24" depart="436.00" departLane="WB2four-arm_LTL_1" departPos="5.10" departSpeed="12.31" departDelay="-0.43" arrival="1016.00" arrivalLane="incoming2EB_0" arrivalPos="304.25" arrivalSpeed="11.60" duration="580.00" routeLength="1879.16" waitingTime="403.00" waitingCount="3" stopTime="0.00" timeLoss="426.97" rerouteNo="0" devices="tripinfo_24" vType="DEFAULT_VEHTYPE" speedFactor="0.89" vaporized=""/>
    <tripinfo id="25" depart="785.00" departLane="WB2four-arm_LTL_1" departPos="5.10" departSpeed="15.60" departDelay="-0.27" arrival="1024.00" arrivalLane="T2SEB_0" arrivalPos="296.94" arrivalSpeed="14.67" duration="239.00" routeLength="2221.49" waitingTime="79.00" waitingCount="1" stopTime="0.00" timeLoss="94.93" rerouteNo="0" devices="tripinfo_25" vType="DEFAULT_VEHTYPE" speedFactor="1.12" vaporized=""/>
    <tripinfo id="37" depart="557.00" departLane="WB2four-arm_LTL_1" departPos="5.10" departSpeed="11.90" departDelay="-0.09" arrival="1032.00" arrivalLane="four-arm2NWB_0" arrivalPos="313.79" arrivalSpeed="11.59" duration="475.00" routeLength="1087.89" waitingTime="370.00" waitingCount="2" stopTime="0.00" timeLoss="382.22" rerouteNo="0" devices="tripinfo_37" vType="DEFAULT_VEHTYPE" speedFactor="0.86" vaporized=""/>
    <tripinfo id="38" depart="833.00" departLane="WB2four-arm_LTL_0" departPos="5.10" departSpeed="12.87" departDelay="-0.34" arrival="1032.00" arrivalLane="four-arm2NWB_1" arrivalPos="313.79" arrivalSpeed="12.82" duration="199.00" routeLength="1087.89" waitingTime="103.00" waitingCount="1" stopTime="0.00" timeLoss="113.80" rerouteNo="0" devices="tripinfo_38" vType="DEFAULT_VEHTYPE" speedFactor="0.93" vaporized=""/>
    <tripinfo id="51" depart="1034.00" departLane="NWB2four-arm_LTL_0" departPos="5.10" departSpeed="16.09" departDelay="-0.54" arrival="1253.00" arrivalLane="four-arm2WB_0" arrivalPos="759.55" arrivalSpeed="15.65" duration="219.00" routeLength="1077.79" waitingTime="142.00" waitingCount="1" stopTime="0.00" timeLoss="151.42" rerouteNo="0" devices="tripinfo_51" vType="DEFAULT_VEHTYPE" speedFactor="1.16" vaporized=""/>
    <tripinfo id="52" depart="1130.00" departLane="NWB2four-arm_LTL_0" departPos="5.10" departSpeed="14.14" departDelay="-0.77" arrival="1262.00" arrivalLane="four-arm2WB_0" arrivalPos="759.55" arrivalSpeed="13.67" duration="132.00" routeLength="1077.79" waitingTime="44.00" waitingCount="1" stopTime="0.00" timeLoss="54.63" rerouteNo="0" devices="tripinfo_52" vType="DEFAULT_VEHTYPE" speedFactor="1.02" vaporized=""/>
    <tripinfo id="13" depart="666.00" departLane="SEB2T_0" departPos="5.10" departSpeed="15.15" departDelay="-0.67" arrival="1300.00" arrivalLane="four-arm2WB_0" arrivalPos="759.55" arrivalSpeed="14.21" duration="634.00" routeLength="2163.93" waitingTime="469.00" waitingCount="3" stopTime="0.00" timeLoss="489.81" rerouteNo="0" devices="tripinfo_13" vType="DEFAULT_VEHTYPE" speedFactor="1.09" vaporized=""/>
    <tripinfo id="55" depart="891.00" departLane="NWB2four-arm_LTL_0" departPos="5.10" departSpeed="13.08" departDelay="-0.90" arrival="1479.00" arrivalLane="incoming2EB_0" arrivalPos="304.25" arrivalSpeed="12.92" duration="588.00" routeLength="1412.33" waitingTime="468.00" waitingCount="2" stopTime="0.00" timeLoss="479.99" rerouteNo="0" devices="tripinfo_55" vType="DEFAULT_VEHTYPE" speedFactor="0.94" vaporized=""/>
    <tripinfo id="22" depart="842.00" departLane="WB2four-arm_LTL_0" departPos="5.10" departSpeed="12.20" departDelay="-0.52" arrival="1481.00" arrivalLane="incoming2EB_1" arrivalPos="304.25" arrivalSpeed="11.80" duration="639.00" routeLength="1858.09" waitingTime="470.00" waitingCount="2" stopTime="0.00" timeLoss="486.82" rerouteNo="0" devices="tripinfo_22" vType="DEFAULT_VEHTYPE" speedFactor="0.88" vaporized=""/>
    <tripinfo id="58" depart="1184.00" departLane="NWB2four-arm_LTL_0" departPos="5.10" departSpeed="14.03" departDelay="-0.71" arrival="1489.00" arrivalLane="incoming2EB_0" arrivalPos="304.25" arrivalSpeed="14.02" duration="305.00" routeLength="1431.94" waitingTime="187.00" waitingCount="2" stopTime="0.00" timeLoss="201.86" rerouteNo="0" devices="tripinfo_58" vType="DEFAULT_VEHTYPE" speedFactor="1.01" vaporized=""/>
    <tripinfo id="59" depart="997.00" departLane="NWB2four-arm_LTL_0" departPos="5.10" departSpeed="13.00" departDelay="-0.76" arrival="1493.00" arrivalLane="incoming2EB_0" arrivalPos="304.25" arrivalSpeed="12.07" duration="496.00" routeLength="1431.94" waitingTime="370.00" waitingCount="2" stopTime="0.00" timeLoss="385.02" rerouteNo="0" devices="tripinfo_59" vType="DEFAULT_VEHTYPE" speedFactor="0.94" vaporized=""/>
    <tripinfo id="62" depart="1238.00" departLane="NWB2four-arm_LTL_0" departPos="5.10" departSpeed="13.54" departDelay="-0.90" arrival="1494.00" arrivalLane="incoming2EB_1" arrivalPos="304.25" arrivalSpeed="13.12" duration="256.00" routeLength="1431.94" waitingTime="138.00" waitingCount="1" stopTime="0.00" timeLoss="149.53" rerouteNo="0" devices="tripinfo_62" vType="DEFAULT_VEHTYPE" speedFactor="0.98" vaporized=""/>
    <tripinfo id="8" depart="819.00" departLane="EB2incoming_0" departPos="5.10" departSpeed="13.77" departDelay="-0.88" arrival="1609.00" arrivalLane="four-arm2WB_0" arrivalPos="759.55" arrivalSpeed="12.49" duration="790.00" routeLength="1858.17" waitingTime="638.00" waitingCount="3" stopTime="0.00" timeLoss="655.04" rerouteNo="0" devices="tripinfo_8" vType="DEFAULT_VEHTYPE" speedFactor="0.99" vaporized=""/>
    <tripinfo id="3" depart="754.00" departLane="NEB2incoming_LTL_1" departPos="5.10" departSpeed="14.54" departDelay="-0.69" arrival="1659.00" arrivalLane="four-arm2WB_0" arrivalPos="759.55" arrivalSpeed="14.26" duration="905.00" routeLength="1885.86" waitingTime="745.00" waitingCount="5" stopTime="0.00" timeLoss="775.73" rerouteNo="0" devices="tripinfo_3" vType="DEFAULT_VEHTYPE" speedFactor="1.05" vaporized=""/>
    <tripinfo id="5" depart="1283.00" departLane="EB2incoming_0" departPos="5.10" departSpeed="12.36" departDelay="-0.82" arrival="1672.00" arrivalLane="four-arm2WB_0" arrivalPos="759.55" arrivalSpeed="12.23" duration="389.00" routeLength="1879.21" waitingTime="213.00" waitingCount="3" stopTime="0.00" timeLoss="235.95" rerouteNo="0" devices="tripinfo_5" vType="DEFAULT_VEHTYPE" speedFactor="0.89" vaporized=""/>
    <tripinfo id="33" depart="1302.00" departLane="WB2four-arm_LTL_0" departPos="5.10" departSpeed="11.47" departDelay="-0.21" arrival="1831.00" arrivalLane="T2SEB_0" arrivalPos="296.94" arrivalSpeed="10.85" duration="529.00" routeLength="2221.49" waitingTime="309.00" waitingCount="2" stopTime="0.00" timeLoss="332.40" rerouteNo="0" devices="tripinfo_33" vType="DEFAULT_VEHTYPE" speedFactor="0.83" vaporized=""/>
    <tripinfo id="42" depart="1762.00" departLane="WB2four-arm_LTL_0" departPos="5.10" departSpeed="12.94" departDelay="-0.81" arrival="1852.00" arrivalLane="four-arm2NWB_0" arrivalPos="313.79" arrivalSpeed="12.26" duration="90.00" routeLength="1087.89" waitingTime="0.00" waitingCount="0" stopTime="0.00" timeLoss="4.51" rerouteNo="0" devices="tripinfo_42" vType="DEFAULT_VEHTYPE" speedFactor="0.93" vaporized=""/>
    <tripinfo id="45" depart="1822.00" departLane="NWB2four-arm_LTL_1" departPos="5.10" departSpeed="16.37" departDelay="-0.07" arrival="2051.00" arrivalLane="four-arm2WB_0" arrivalPos="759.55" arrivalSpeed="16.35" duration="229.00" routeLength="1077.79" waitingTime="152.00" waitingCount="1" stopTime="0.00" timeLoss="162.28" rerouteNo="0" devices="tripinfo_45" vType="DEFAULT_VEHTYPE" speedFactor="1.18" vaporized=""/>
    <tripinfo id="53" depart="1669.00" departLane="NWB2four-arm_LTL_0" departPos="5.10" departSpeed="13.18" departDelay="-0.56" arrival="2058.00" arrivalLane="four-arm2WB_0" arrivalPos="759.55" arrivalSpeed="12.21" duration="389.00" routeLength="1068.24" waitingTime="301.00" waitingCount="1" stopTime="0.00" timeLoss="308.19" rerouteNo="0" devices="tripinfo_53" vType="DEFAULT_VEHTYPE" speedFactor="0.95" vaporized=""/>
    <tripinfo id="54" depart="1972.00" departLane="NWB2four-arm_LTL_1" departPos="5.10" departSpeed="13.82" departDelay="-0.95" arrival="2063.00" arrivalLane="four-arm2WB_0" arrivalPos="759.55" arrivalSpeed="13.06" duration="91.00" routeLength="1077.79" waitingTime="1.00" waitingCount="1" stopTime="0.00" timeLoss="11.92" rerouteNo="0" devices="tripinfo_54" vType="DEFAULT_VEHTYPE" speedFactor="0.99" vaporized=""/>
    <tripinfo id="12" depart="1372.00" departLane="SEB2T_0" departPos="5.10" departSpeed="12.12" departDelay="-0.68" arrival="2092.00" arrivalLane="four-arm2WB_0" arrivalPos="759.55" arrivalSpeed="11.19" duration="720.00" routeLength="2163.93" waitingTime="519.00" waitingCount="3" stopTime="0.00" timeLoss="540.00" rerouteNo="0" devices="tripinfo_12" vType="DEFAULT_VEHTYPE" speedFactor="0.87" vaporized=""/>
    <tripinfo id="20" depart="1651.00" departLane="WB2four-arm_LTL_0" departPos="5.10" departSpeed="12.74" departDelay="-0.42" arrival="2109.00" arrivalLane="incoming2EB_0" arrivalPos="304.25" arrivalSpeed="12.34" duration="458.00" routeLength="1858.09" waitingTime="301.00" waitingCount="1" stopTime="0.00" timeLoss="312.44" rerouteNo="0" devices="tripinfo_20" vType="DEFAULT_VEHTYPE" speedFactor="0.92" vaporized=""/>
    <tripinfo id="2" depart="1847.00" departLane="NEB2incoming_LTL_0" departPos="5.10" departSpeed="16.04" departDelay="-0.70" arrival="2380.00" arrivalLane="four-arm2WB_0" arrivalPos="759.55" arrivalSpeed="15.05" duration="533.00" routeLength="1873.98" waitingTime="403.00" waitingCount="2" stopTime="0.00" timeLoss="415.24" rerouteNo="0" devices="tripinfo_2" vType="DEFAULT_VEHTYPE" speedFactor="1.15" vaporized=""/>
    <tripinfo id="26" depart="1752.00" departLane="WB2four-arm_LTL_1" departPos="5.10" departSpeed="15.72" departDelay="-0.65" arrival="2421.00" arrivalLane="T2SEB_0" arrivalPos="296.94" arrivalSpeed="14.63" duration="669.00" routeLength="2212.46" waitingTime="515.00" waitingCount="2" stopTime="0.00" timeLoss="527.83" rerouteNo="0" devices="tripinfo_26" vType="DEFAULT_VEHTYPE" speedFactor="1.13" vaporized=""/>
    <tripinfo id="10" depart="2015.00" departLane="SEB2T_0" departPos="5.10" departSpeed="14.16" departDelay="-0.92" arrival="2460.00" arrivalLane="four-arm2WB_0" arrivalPos="759.55" arrivalSpeed="14.01" duration="445.00" routeLength="2184.97" waitingTime="266.00" waitingCount="3" stopTime="0.00" timeLoss="288.86" rerouteNo="0" devices="tripinfo_10" vType="DEFAULT_VEHTYPE" speedFactor="1.02" vaporized=""/>
    <tripinfo id="43" depart="2104.00" departLane="WB2four-arm_LTL_1" departPos="5.10" departSpeed="13.52" departDelay="-0.54" arrival="2491.00" arrivalLane="four-arm2NWB_0" arrivalPos="313.79" arrivalSpeed="13.15" duration="387.00" routeLength="1068.24" waitingTime="301.00" waitingCount="1" stopTime="0.00" timeLoss="308.30" rerouteNo="0" devices="tripinfo_43" vType="DEFAULT_VEHTYPE" speedFactor="0.97" vaporized=""/>
    <tripinfo id="23" depart="1943.00" departLane="WB2four-arm_LTL_1" departPos="5.10" departSpeed="16.28" departDelay="-0.63" arrival="2499.00" arrivalLane="incoming2EB_0" arrivalPos="304.25" arrivalSpeed="15.24" duration="556.00" routeLength="1879.16" waitingTime="414.00" waitingCount="4" stopTime="0.00" timeLoss="440.25" rerouteNo="0" devices="tripinfo_23" vType="DEFAULT_VEHTYPE" speedFactor="1.17" vaporized=""/>
    <tripinfo id="28" depart="2116.00" departLane="WB2four-arm_LTL_1" departPos="5.10" departSpeed="16.39" departDelay="-0.75" arrival="2502.00" arrivalLane="T2SEB_0" arrivalPos="296.94" arrivalSpeed="15.69" duration="386.00" routeLength="2221.49" waitingTime="232.00" waitingCount="2" stopTime="0.00" timeLoss="248.66" rerouteNo="0" devices="tripinfo_28" vType="DEFAULT_VEHTYPE" speedFactor="1.18" vaporized=""/>
    <tripinfo id="56" depart="2252.00" departLane="NWB2four-arm_LTL_0" departPos="5.10" departSpeed="14.41" departDelay="-0.80" arrival="2503.00" arrivalLane="incoming2EB_0" arrivalPos="304.25" arrivalSpeed="13.35" duration="251.00" routeLength="1431.94" waitingTime="138.00" waitingCount="1" stopTime="0.00" timeLoss="149.82" rerouteNo="0" devices="tripinfo_56" vType="DEFAULT_VEHTYPE" speedFactor="1.04" vaporized=""/>
    <tripinfo id="16" depart="1848.00" departLane="WB2four-arm_LTL_1" departPos="5.10" departSpeed="13.96" departDelay="-0.48" arrival="2505.00" arrivalLane="incoming2EB_0" arrivalPos="304.25" arrivalSpeed="13.57" duration="657.00" routeLength="1879.16" waitingTime="495.00" waitingCount="4" stopTime="0.00" timeLoss="521.87" rerouteNo="0" devices="tripinfo_16" vType="DEFAULT_VEHTYPE" speedFactor="1.01" vaporized=""/>
    <tripinfo id="18" depart="2239.00" departLane="WB2four-arm_LTL_1" departPos="5.10" departSpeed="13.29" departDelay="-0.54" arrival="2505.00" arrivalLane="incoming2EB_1" arrivalPos="304.25" arrivalSpeed="13.07" duration="266.00" routeLength="1879.16" waitingTime="99.00" waitingCount="2" stopTime="0.00" timeLoss="124.42" rerouteNo="0" devices="tripinfo_18" vType="DEFAULT_VEHTYPE" speedFactor="0.96" vaporized=""/>
    <tripinfo id="41" depart="2138.00" departLane="WB2four-arm_LTL_1" departPos="5.10" departSpeed="15.31" departDelay="-0.70" arrival="2625.00" arrivalLane="four-arm2NWB_1" arrivalPos="313.79" arrivalSpeed="14.78" duration="487.00" routeLength="1087.89" waitingTime="404.00" waitingCount="2" stopTime="0.00" timeLoss="415.23" rerouteNo="0" devices="tripinfo_41" vType="DEFAULT_VEHTYPE" speedFactor="1.10" vaporized=""/>
    <tripinfo id="34" depart="2279.00" departLane="WB2four-arm_LTL_1" departPos="5.10" departSpeed="14.49" departDelay="-0.74" arrival="2625.00" arrivalLane="T2SEB_0" arrivalPos="296.94" arrivalSpeed="13.87" duration="346.00" routeLength="2216.22" waitingTime="166.00" waitingCount="2" stopTime="0.00" timeLoss="190.92" rerouteNo="0" devices="tripinfo_34" vType="DEFAULT_VEHTYPE" speedFactor="1.04" vaporized=""/>
    <tripinfo id="44" depart="2198.00" departLane="WB2four-arm_LTL_1" departPos="5.10" departSpeed="14.31" departDelay="-0.82" arrival="2629.00" arrivalLane="four-arm2NWB_1" arrivalPos="313.79" arrivalSpeed="13.82" duration="431.00" routeLength="1087.89" waitingTime="341.00" waitingCount="2" stopTime="0.00" timeLoss="354.32" rerouteNo="0" devices="tripinfo_44" vType="DEFAULT_VEHTYPE" speedFactor="1.03" vaporized=""/>
    <tripinfo id="32" depart="2169.00" departLane="WB2four-arm_LTL_1" departPos="5.10" departSpeed="12.51" departDelay="-0.75" arrival="2630.00" arrivalLane="T2SEB_0" arrivalPos="296.94" arrivalSpeed="12.28" duration="461.00" routeLength="2221.49" waitingTime="254.00" waitingCount="3" stopTime="0.00" timeLoss="281.85" rerouteNo="0" devices="tripinfo_32" vType="DEFAULT_VEHTYPE" speedFactor="0.90" vaporized=""/>
    <tripinfo id="27" depart="2313.00" departLane="WB2four-arm_LTL_1" departPos="5.10" departSpeed="13.85" departDelay="-0.26" arrival="2630.00" arrivalLane="T2SEB_1" arrivalPos="296.94" arrivalSpeed="13.67" duration="317.00" routeLength="2221.49" waitingTime="125.00" waitingCount="2" stopTime="0.00" timeLoss="154.62" rerouteNo="0" devices="tripinfo_27" vType="DEFAULT_VEHTYPE" speedFactor="1.00" vaporized=""/>
    <tripinfo id="39" depart="2359.00" departLane="WB2four-arm_LTL_1" departPos="5.10" departSpeed="12.18" departDelay="-0.25" arrival="2636.00" arrivalLane="four-arm2NWB_0" arrivalPos="313.79" arrivalSpeed="11.50" duration="277.00" routeLength="1087.89" waitingTime="169.00" waitingCount="2" stopTime="0.00" timeLoss="186.36" rerouteNo="0" devices="tripinfo_39" vType="DEFAULT_VEHTYPE" speedFactor="0.88" vaporized=""/>
    <tripinfo id="35" depart="2587.00" departLane="WB2four-arm_LTL_0" departPos="5.10" departSpeed="15.22" departDelay="-0.01" arrival="2664.00" arrivalLane="four-arm2NWB_1" arrivalPos="313.79" arrivalSpeed="14.68" duration="77.00" routeLength="1087.89" waitingTime="0.00" waitingCount="0" stopTime="0.00" timeLoss="4.31" rerouteNo="0" devices="tripinfo_35" vType="DEFAULT_VEHTYPE" speedFactor="1.10" vaporized=""/>
    <tripinfo id="61" depart="2341.00" departLane="NWB2four-arm_LTL_0" departPos="5.10" departSpeed="12.51" departDelay="-0.13" arrival="2764.00" arrivalLane="incoming2EB_0" arrivalPos="304.25" arrivalSpeed="12.24" duration="423.00" routeLength="1412.33" waitingTime="301.00" waitingCount="1" stopTime="0.00" timeLoss="309.87" rerouteNo="0" devices="tripinfo_61" vType="DEFAULT_VEHTYPE" speedFactor="0.90" vaporized=""/>
    <tripinfo id="9" depart="2300.00" departLane="EB2incoming_0" departPos="5.10" departSpeed="15.11" departDelay="-0.46" arrival="2890.00" arrivalLane="four-arm2WB_0" arrivalPos="759.55" arrivalSpeed="14.50" duration="590.00" routeLength="1858.17" waitingTime="452.00" waitingCount="2" stopTime="0.00" timeLoss="466.71" rerouteNo="0" devices="tripinfo_9" vType="DEFAULT_VEHTYPE" speedFactor="1.09" vaporized=""/>
    <tripinfo id="48" depart="2807.00" departLane="NWB2four-arm_LTL_0" departPos="5.10" departSpeed="13.93" departDelay="-0.46" arrival="2891.00" arrivalLane="four-arm2WB_0" arrivalPos="759.55" arrivalSpeed="13.68" duration="84.00" routeLength="1077.79" waitingTime="0.00" waitingCount="0" stopTime="0.00" timeLoss="5.26" rerouteNo="0" devices="tripinfo_48" vType="DEFAULT_VEHTYPE" speedFactor="1.00" vaporized=""/>
    <tripinfo id="19" depart="2436.00" departLane="WB2four-arm_LTL_0" departPos="5.10" departSpeed="11.81" departDelay="-0.32" arrival="3082.00" arrivalLane="incoming2EB_0" arrivalPos="304.25" arrivalSpeed="11.63" duration="646.00" routeLength="1858.09" waitingTime="471.00" waitingCount="2" stopTime="0.00" timeLoss="488.33" rerouteNo="0" devices="tripinfo_19" vType="DEFAULT_VEHTYPE" speedFactor="0.85" vaporized=""/>
    <tripinfo id="63" depart="2442.00" departLane="NWB2four-arm_LTL_0" departPos="5.10" departSpeed="11.87" departDelay="-0.60" arrival="3082.00" arrivalLane="incoming2EB_1" arrivalPos="304.25" arrivalSpeed="11.10" duration="640.00" routeLength="1412.33" waitingTime="501.00" waitingCount="2" stopTime="0.00" timeLoss="520.65" rerouteNo="0" devices="tripinfo_63" vType="DEFAULT_VEHTYPE" speedFactor="0.85" vaporized=""/>
    <tripinfo id="60" depart="2573.00" departLane="NWB2four-arm_LTL_0" departPos="5.10" departSpeed="14.12" departDelay="-0.19" arrival="3087.00" arrivalLane="incoming2EB_0" arrivalPos="304.25" arrivalSpeed="13.98" duration="514.00" routeLength="1431.94" waitingTime="392.00" waitingCount="3" stopTime="0.00" timeLoss="411.09" rerouteNo="0" devices="tripinfo_60" vType="DEFAULT_VEHTYPE" speedFactor="1.02" vaporized=""/>
    <tripinfo id="14" depart="2248.00" departLane="SEB2T_0" departPos="5.10" departSpeed="15.17" departDelay="-0.33" arrival="3193.00" arrivalLane="four-arm2WB_0" arrivalPos="759.55" arrivalSpeed="14.97" duration="945.00" routeLength="2146.92" waitingTime="781.00" waitingCount="4" stopTime="0.00" timeLoss="803.87" rerouteNo="0" devices="tripinfo_14" vType="DEFAULT_VEHTYPE" speedFactor="1.09" vaporized=""/>
    <tripinfo id="0" depart="2488.00" departLane="NEB2incoming_LTL_0" departPos="5.10" departSpeed="16.24" departDelay="-0.08" arrival="3254.00" arrivalLane="four-arm2WB_0" arrivalPos="759.55" arrivalSpeed="15.05" duration="766.00" routeLength="1885.86" waitingTime="629.00" waitingCount="3" stopTime="0.00" timeLoss="649.40" rerouteNo="0" devices="tripinfo_0" vType="DEFAULT_VEHTYPE" speedFactor="1.17" vaporized=""/>
    <tripinfo id="6" depart="2852.00" departLane="EB2incoming_0" departPos="5.10" departSpeed="13.83" departDelay="-0.53" arrival="3264.00" arrivalLane="four-arm2WB_0" arrivalPos="759.55" arrivalSpeed="13.13" duration="412.00" routeLength="1879.21" waitingTime="249.00" waitingCount="3" stopTime="0.00" timeLoss="275.37" rerouteNo="0" devices="tripinfo_6" vType="DEFAULT_VEHTYPE" speedFactor="1.00" vaporized=""/>
    <tripinfo id="36" depart="2896.00" departLane="WB2four-arm_LTL_0" departPos="5.10" departSpeed="12.49" departDelay="-0.69" arrival="3291.00" arrivalLane="four-arm2NWB_0" arrivalPos="313.79" arrivalSpeed="11.42" duration="395.00" routeLength="1068.24" waitingTime="301.00" waitingCount="1" stopTime="0.00" timeLoss="309.05" rerouteNo="0" devices="tripinfo_36" vType="DEFAULT_VEHTYPE" speedFactor="0.90" vaporized=""/>
    <tripinfo id="29" depart="3001.00" departLane="WB2four-arm_LTL_0" departPos="5.10" departSpeed="13.47" departDelay="-0.37" arrival="3320.00" arrivalLane="T2SEB_0" arrivalPos="296.94" arrivalSpeed="12.51" duration="319.00" routeLength="2221.49" waitingTime="136.00" waitingCount="1" stopTime="0.00" timeLoss="151.57" rerouteNo="0" devices="tripinfo_29" vType="DEFAULT_VEHTYPE" speedFactor="0.97" vaporized=""/>
</tripinfos>
