<?xml version="1.0" encoding="UTF-8"?>

<!-- generated on 12/02/19 20:14:07 by Eclipse SUMO GUI Version 1.3.1
<configuration xmlns:xsi="http://www.w3.org/2001/XMLSchema-instance" xsi:noNamespaceSchemaLocation="http://sumo.dlr.de/xsd/sumoConfiguration.xsd">

    <input>
        <net-file value="simpleNetwork.net.xml"/>
        <route-files value="od_route_file.odtrips.rou.xml"/>
    </input>

    <output>
        <tripinfo-output value="tripinfo.xml"/>
    </output>

    <time>
        <begin value="0"/>
        <end value="2000"/>
    </time>

    <traci_server>
        <remote-port value="50935"/>
    </traci_server>

</configuration>
-->

<tripinfos xmlns:xsi="http://www.w3.org/2001/XMLSchema-instance" xsi:noNamespaceSchemaLocation="http://sumo.dlr.de/xsd/tripinfo_file.xsd">
    <tripinfo id="57" depart="27.00" departLane="NWB2four-arm_LTL_0" departPos="5.10" departSpeed="14.72" departDelay="-0.48" arrival="399.00" arrivalLane="incoming2EB_0" arrivalPos="304.25" arrivalSpeed="14.04" duration="372.00" routeLength="1431.94" waitingTime="264.00" waitingCount="1" stopTime="0.00" timeLoss="273.38" rerouteNo="0" devices="tripinfo_57" vType="DEFAULT_VEHTYPE" speedFactor="1.06" vaporized=""/>
    <tripinfo id="40" depart="410.00" departLane="WB2four-arm_LTL_1" departPos="5.10" departSpeed="11.54" departDelay="-0.68" arrival="559.00" arrivalLane="four-arm2NWB_0" arrivalPos="313.79" arrivalSpeed="11.34" duration="149.00" routeLength="1087.89" waitingTime="44.00" waitingCount="1" stopTime="0.00" timeLoss="53.44" rerouteNo="0" devices="tripinfo_40" vType="DEFAULT_VEHTYPE" speedFactor="0.83" vaporized=""/>
    <tripinfo id="31" depart="423.00" departLane="WB2four-arm_LTL_1" departPos="5.10" departSpeed="14.53" departDelay="-0.68" arrival="587.00" arrivalLane="T2SEB_0" arrivalPos="296.94" arrivalSpeed="13.78" duration="164.00" routeLength="2221.49" waitingTime="0.00" waitingCount="0" stopTime="0.00" timeLoss="9.86" rerouteNo="0" devices="tripinfo_31" vType="DEFAULT_VEHTYPE" speedFactor="1.05" vaporized=""/>
    <tripinfo id="47" depart="363.00" departLane="NWB2four-arm_LTL_1" departPos="5.10" departSpeed="15.04" departDelay="-0.29" arrival="655.00" arrivalLane="four-arm2WB_1" arrivalPos="759.55" arrivalSpeed="14.85" duration="292.00" routeLength="1077.79" waitingTime="209.00" waitingCount="1" stopTime="0.00" timeLoss="218.56" rerouteNo="0" devices="tripinfo_47" vType="DEFAULT_VEHTYPE" speedFactor="1.08" vaporized=""/>
    <tripinfo id="46" depart="353.00" departLane="NWB2four-arm_LTL_0" departPos="5.10" departSpeed="14.03" departDelay="-0.09" arrival="656.00" arrivalLane="four-arm2WB_0" arrivalPos="759.55" arrivalSpeed="12.85" duration="303.00" routeLength="1077.79" waitingTime="217.00" waitingCount="1" stopTime="0.00" timeLoss="225.03" rerouteNo="0" devices="tripinfo_46" vType="DEFAULT_VEHTYPE" speedFactor="1.01" vaporized=""/>
    <tripinfo id="17" depart="163.00" departLane="WB2four-arm_LTL_0" departPos="5.10" departSpeed="13.03" departDelay="-0.02" arrival="659.00" arrivalLane="incoming2EB_0" arrivalPos="304.25" arrivalSpeed="12.09" duration="496.00" routeLength="1879.16" waitingTime="332.00" waitingCount="2" stopTime="0.00" timeLoss="351.15" rerouteNo="0" devices="tripinfo_17" vType="DEFAULT_VEHTYPE" speedFactor="0.94" vaporized=""/>
    <tripinfo id="24" depart="436.00" departLane="WB2four-arm_LTL_0" departPos="5.10" departSpeed="12.31" departDelay="-0.43" arrival="661.00" arrivalLane="incoming2EB_0" arrivalPos="304.25" arrivalSpeed="11.71" duration="225.00" routeLength="1879.16" waitingTime="59.00" waitingCount="1" stopTime="0.00" timeLoss="71.69" rerouteNo="0" devices="tripinfo_24" vType="DEFAULT_VEHTYPE" speedFactor="0.89" vaporized=""/>
    <tripinfo id="7" depart="401.00" departLane="EB2incoming_0" departPos="5.10" departSpeed="14.31" departDelay="-0.49" arrival="868.00" arrivalLane="four-arm2WB_0" arrivalPos="759.55" arrivalSpeed="14.08" duration="467.00" routeLength="1879.21" waitingTime="317.00" waitingCount="2" stopTime="0.00" timeLoss="334.83" rerouteNo="0" devices="tripinfo_7" vType="DEFAULT_VEHTYPE" speedFactor="1.03" vaporized=""/>
    <tripinfo id="13" depart="666.00" departLane="SEB2T_0" departPos="5.10" departSpeed="15.15" departDelay="-0.67" arrival="868.00" arrivalLane="four-arm2WB_1" arrivalPos="759.55" arrivalSpeed="14.20" duration="202.00" routeLength="2184.97" waitingTime="32.00" waitingCount="2" stopTime="0.00" timeLoss="56.02" rerouteNo="0" devices="tripinfo_13" vType="DEFAULT_VEHTYPE" speedFactor="1.09" vaporized=""/>
    <tripinfo id="1" depart="476.00" departLane="NEB2incoming_LTL_0" departPos="5.10" departSpeed="13.03" departDelay="-0.94" arrival="871.00" arrivalLane="four-arm2WB_0" arrivalPos="759.55" arrivalSpeed="13.02" duration="395.00" routeLength="1895.02" waitingTime="230.00" waitingCount="2" stopTime="0.00" timeLoss="248.96" rerouteNo="0" devices="tripinfo_1" vType="DEFAULT_VEHTYPE" speedFactor="0.94" vaporized=""/>
    <tripinfo id="25" depart="785.00" departLane="WB2four-arm_LTL_0" departPos="5.10" departSpeed="15.60" departDelay="-0.27" arrival="938.00" arrivalLane="T2SEB_0" arrivalPos="296.94" arrivalSpeed="15.52" duration="153.00" routeLength="2221.49" waitingTime="0.00" waitingCount="0" stopTime="0.00" timeLoss="8.72" rerouteNo="0" devices="tripinfo_25" vType="DEFAULT_VEHTYPE" speedFactor="1.12" vaporized=""/>
    <tripinfo id="37" depart="557.00" departLane="WB2four-arm_LTL_0" departPos="5.10" departSpeed="11.90" departDelay="-0.09" arrival="942.00" arrivalLane="four-arm2NWB_0" arrivalPos="313.79" arrivalSpeed="11.88" duration="385.00" routeLength="1087.89" waitingTime="283.00" waitingCount="1" stopTime="0.00" timeLoss="293.01" rerouteNo="0" devices="tripinfo_37" vType="DEFAULT_VEHTYPE" speedFactor="0.86" vaporized=""/>
    <tripinfo id="38" depart="833.00" departLane="WB2four-arm_LTL_0" departPos="5.10" departSpeed="12.87" departDelay="-0.34" arrival="943.00" arrivalLane="four-arm2NWB_1" arrivalPos="313.79" arrivalSpeed="12.24" duration="110.00" routeLength="1087.89" waitingTime="14.00" waitingCount="1" stopTime="0.00" timeLoss="23.90" rerouteNo="0" devices="tripinfo_38" vType="DEFAULT_VEHTYPE" speedFactor="0.93" vaporized=""/>
    <tripinfo id="3" depart="754.00" departLane="NEB2incoming_LTL_0" departPos="5.10" departSpeed="14.54" departDelay="-0.69" arrival="958.00" arrivalLane="four-arm2WB_0" arrivalPos="759.55" arrivalSpeed="13.25" duration="204.00" routeLength="1895.02" waitingTime="60.00" waitingCount="1" stopTime="0.00" timeLoss="72.39" rerouteNo="0" devices="tripinfo_3" vType="DEFAULT_VEHTYPE" speedFactor="1.05" vaporized=""/>
    <tripinfo id="15" depart="724.00" departLane="WB2four-arm_LTL_0" departPos="5.10" departSpeed="14.26" departDelay="-0.95" arrival="973.00" arrivalLane="incoming2EB_0" arrivalPos="304.25" arrivalSpeed="13.68" duration="249.00" routeLength="1879.16" waitingTime="97.00" waitingCount="2" stopTime="0.00" timeLoss="116.50" rerouteNo="0" devices="tripinfo_15" vType="DEFAULT_VEHTYPE" speedFactor="1.03" vaporized=""/>
    <tripinfo id="51" depart="1034.00" departLane="NWB2four-arm_LTL_0" departPos="5.10" departSpeed="16.09" departDelay="-0.54" arrival="1107.00" arrivalLane="four-arm2WB_0" arrivalPos="759.55" arrivalSpeed="15.91" duration="73.00" routeLength="1077.79" waitingTime="0.00" waitingCount="0" stopTime="0.00" timeLoss="4.60" rerouteNo="0" devices="tripinfo_51" vType="DEFAULT_VEHTYPE" speedFactor="1.16" vaporized=""/>
    <tripinfo id="52" depart="1130.00" departLane="NWB2four-arm_LTL_0" departPos="5.10" departSpeed="14.14" departDelay="-0.77" arrival="1213.00" arrivalLane="four-arm2WB_0" arrivalPos="759.55" arrivalSpeed="13.47" duration="83.00" routeLength="1077.79" waitingTime="0.00" waitingCount="0" stopTime="0.00" timeLoss="5.62" rerouteNo="0" devices="tripinfo_52" vType="DEFAULT_VEHTYPE" speedFactor="1.02" vaporized=""/>
    <tripinfo id="8" depart="819.00" departLane="EB2incoming_0" departPos="5.10" departSpeed="13.77" departDelay="-0.88" arrival="1247.00" arrivalLane="four-arm2WB_0" arrivalPos="759.55" arrivalSpeed="13.21" duration="428.00" routeLength="1879.21" waitingTime="276.00" waitingCount="2" stopTime="0.00" timeLoss="291.42" rerouteNo="0" devices="tripinfo_8" vType="DEFAULT_VEHTYPE" speedFactor="0.99" vaporized=""/>
    <tripinfo id="55" depart="891.00" departLane="NWB2four-arm_LTL_0" departPos="5.10" departSpeed="13.08" departDelay="-0.90" arrival="1289.00" arrivalLane="incoming2EB_0" arrivalPos="304.25" arrivalSpeed="12.91" duration="398.00" routeLength="1431.94" waitingTime="272.00" waitingCount="2" stopTime="0.00" timeLoss="287.62" rerouteNo="0" devices="tripinfo_55" vType="DEFAULT_VEHTYPE" speedFactor="0.94" vaporized=""/>
    <tripinfo id="59" depart="997.00" departLane="NWB2four-arm_LTL_0" departPos="5.10" departSpeed="13.00" departDelay="-0.76" arrival="1289.00" arrivalLane="incoming2EB_1" arrivalPos="304.25" arrivalSpeed="12.64" duration="292.00" routeLength="1431.94" waitingTime="163.00" waitingCount="2" stopTime="0.00" timeLoss="180.74" rerouteNo="0" devices="tripinfo_59" vType="DEFAULT_VEHTYPE" speedFactor="0.94" vaporized=""/>
    <tripinfo id="22" depart="842.00" departLane="WB2four-arm_LTL_0" departPos="5.10" departSpeed="12.20" departDelay="-0.52" arrival="1293.00" arrivalLane="incoming2EB_0" arrivalPos="304.25" arrivalSpeed="11.00" duration="451.00" routeLength="1879.16" waitingTime="279.00" waitingCount="2" stopTime="0.00" timeLoss="296.62" rerouteNo="0" devices="tripinfo_22" vType="DEFAULT_VEHTYPE" speedFactor="0.88" vaporized=""/>
    <tripinfo id="58" depart="1184.00" departLane="NWB2four-arm_LTL_0" departPos="5.10" departSpeed="14.03" departDelay="-0.71" arrival="1602.00" arrivalLane="incoming2EB_0" arrivalPos="304.25" arrivalSpeed="13.63" duration="418.00" routeLength="1431.94" waitingTime="301.00" waitingCount="2" stopTime="0.00" timeLoss="314.71" rerouteNo="0" devices="tripinfo_58" vType="DEFAULT_VEHTYPE" speedFactor="1.01" vaporized=""/>
    <tripinfo id="62" depart="1238.00" departLane="NWB2four-arm_LTL_0" departPos="5.10" departSpeed="13.54" departDelay="-0.90" arrival="1604.00" arrivalLane="incoming2EB_1" arrivalPos="304.25" arrivalSpeed="12.29" duration="366.00" routeLength="1431.94" waitingTime="243.00" waitingCount="2" stopTime="0.00" timeLoss="258.67" rerouteNo="0" devices="tripinfo_62" vType="DEFAULT_VEHTYPE" speedFactor="0.98" vaporized=""/>
    <tripinfo id="5" depart="1283.00" departLane="EB2incoming_0" departPos="5.10" departSpeed="12.36" departDelay="-0.82" arrival="1720.00" arrivalLane="four-arm2WB_0" arrivalPos="759.55" arrivalSpeed="12.23" duration="437.00" routeLength="1879.21" waitingTime="270.00" waitingCount="1" stopTime="0.00" timeLoss="284.56" rerouteNo="0" devices="tripinfo_5" vType="DEFAULT_VEHTYPE" speedFactor="0.89" vaporized=""/>
    <tripinfo id="33" depart="1302.00" departLane="WB2four-arm_LTL_0" departPos="5.10" departSpeed="11.47" departDelay="-0.21" arrival="1790.00" arrivalLane="T2SEB_0" arrivalPos="296.94" arrivalSpeed="10.79" duration="488.00" routeLength="2221.49" waitingTime="277.00" waitingCount="1" stopTime="0.00" timeLoss="292.45" rerouteNo="0" devices="tripinfo_33" vType="DEFAULT_VEHTYPE" speedFactor="0.83" vaporized=""/>
    <tripinfo id="42" depart="1762.00" departLane="WB2four-arm_LTL_1" departPos="5.10" departSpeed="12.94" departDelay="-0.81" arrival="1852.00" arrivalLane="four-arm2NWB_0" arrivalPos="313.79" arrivalSpeed="12.48" duration="90.00" routeLength="1087.89" waitingTime="0.00" waitingCount="0" stopTime="0.00" timeLoss="4.59" rerouteNo="0" devices="tripinfo_42" vType="DEFAULT_VEHTYPE" speedFactor="0.93" vaporized=""/>
    <tripinfo id="45" depart="1822.00" departLane="NWB2four-arm_LTL_1" departPos="5.10" departSpeed="16.37" departDelay="-0.07" arrival="1916.00" arrivalLane="four-arm2WB_0" arrivalPos="759.55" arrivalSpeed="15.65" duration="94.00" routeLength="1077.79" waitingTime="16.00" waitingCount="1" stopTime="0.00" timeLoss="26.48" rerouteNo="0" devices="tripinfo_45" vType="DEFAULT_VEHTYPE" speedFactor="1.18" vaporized=""/>
    <tripinfo id="20" depart="1651.00" departLane="WB2four-arm_LTL_1" departPos="5.10" departSpeed="12.74" departDelay="-0.42" arrival="1920.00" arrivalLane="incoming2EB_0" arrivalPos="304.25" arrivalSpeed="11.45" duration="269.00" routeLength="1879.16" waitingTime="107.00" waitingCount="1" stopTime="0.00" timeLoss="120.61" rerouteNo="0" devices="tripinfo_20" vType="DEFAULT_VEHTYPE" speedFactor="0.92" vaporized=""/>
    <tripinfo id="53" depart="1669.00" departLane="NWB2four-arm_LTL_0" departPos="5.10" departSpeed="13.18" departDelay="-0.56" arrival="1925.00" arrivalLane="four-arm2WB_0" arrivalPos="759.55" arrivalSpeed="12.19" duration="256.00" routeLength="1077.79" waitingTime="163.00" waitingCount="1" stopTime="0.00" timeLoss="172.88" rerouteNo="0" devices="tripinfo_53" vType="DEFAULT_VEHTYPE" speedFactor="0.95" vaporized=""/>
    <tripinfo id="54" depart="1972.00" departLane="NWB2four-arm_LTL_0" departPos="5.10" departSpeed="13.82" departDelay="-0.95" arrival="2057.00" arrivalLane="four-arm2WB_0" arrivalPos="759.55" arrivalSpeed="13.70" duration="85.00" routeLength="1077.79" waitingTime="0.00" waitingCount="0" stopTime="0.00" timeLoss="5.94" rerouteNo="0" devices="tripinfo_54" vType="DEFAULT_VEHTYPE" speedFactor="0.99" vaporized=""/>
    <tripinfo id="2" depart="1847.00" departLane="NEB2incoming_LTL_0" departPos="5.10" departSpeed="16.04" departDelay="-0.70" arrival="2092.00" arrivalLane="four-arm2WB_0" arrivalPos="759.55" arrivalSpeed="15.71" duration="245.00" routeLength="1895.02" waitingTime="111.00" waitingCount="1" stopTime="0.00" timeLoss="125.36" rerouteNo="0" devices="tripinfo_2" vType="DEFAULT_VEHTYPE" speedFactor="1.15" vaporized=""/>
    <tripinfo id="12" depart="1372.00" departLane="SEB2T_0" departPos="5.10" departSpeed="12.12" departDelay="-0.68" arrival="2107.00" arrivalLane="four-arm2WB_0" arrivalPos="759.55" arrivalSpeed="11.70" duration="735.00" routeLength="2184.97" waitingTime="528.00" waitingCount="3" stopTime="0.00" timeLoss="552.70" rerouteNo="0" devices="tripinfo_12" vType="DEFAULT_VEHTYPE" speedFactor="0.87" vaporized=""/>
    <tripinfo id="26" depart="1752.00" departLane="WB2four-arm_LTL_0" departPos="5.10" departSpeed="15.72" departDelay="-0.65" arrival="2138.00" arrivalLane="T2SEB_0" arrivalPos="296.94" arrivalSpeed="14.45" duration="386.00" routeLength="2221.49" waitingTime="231.00" waitingCount="1" stopTime="0.00" timeLoss="243.07" rerouteNo="0" devices="tripinfo_26" vType="DEFAULT_VEHTYPE" speedFactor="1.13" vaporized=""/>
    <tripinfo id="43" depart="2104.00" departLane="WB2four-arm_LTL_0" departPos="5.10" departSpeed="13.52" departDelay="-0.54" arrival="2190.00" arrivalLane="four-arm2NWB_0" arrivalPos="313.79" arrivalSpeed="12.41" duration="86.00" routeLength="1087.89" waitingTime="0.00" waitingCount="0" stopTime="0.00" timeLoss="4.49" rerouteNo="0" devices="tripinfo_43" vType="DEFAULT_VEHTYPE" speedFactor="0.97" vaporized=""/>
    <tripinfo id="41" depart="2138.00" departLane="WB2four-arm_LTL_0" departPos="5.10" departSpeed="15.31" departDelay="-0.70" arrival="2214.00" arrivalLane="four-arm2NWB_1" arrivalPos="313.79" arrivalSpeed="14.78" duration="76.00" routeLength="1087.89" waitingTime="0.00" waitingCount="0" stopTime="0.00" timeLoss="3.85" rerouteNo="0" devices="tripinfo_41" vType="DEFAULT_VEHTYPE" speedFactor="1.10" vaporized=""/>
    <tripinfo id="23" depart="1943.00" departLane="WB2four-arm_LTL_1" departPos="5.10" departSpeed="16.28" departDelay="-0.63" arrival="2229.00" arrivalLane="incoming2EB_0" arrivalPos="304.25" arrivalSpeed="16.13" duration="286.00" routeLength="1879.16" waitingTime="154.00" waitingCount="2" stopTime="0.00" timeLoss="170.32" rerouteNo="0" devices="tripinfo_23" vType="DEFAULT_VEHTYPE" speedFactor="1.17" vaporized=""/>
    <tripinfo id="16" depart="1848.00" departLane="WB2four-arm_LTL_1" departPos="5.10" departSpeed="13.96" departDelay="-0.48" arrival="2232.00" arrivalLane="incoming2EB_0" arrivalPos="304.25" arrivalSpeed="13.74" duration="384.00" routeLength="1879.16" waitingTime="232.00" waitingCount="2" stopTime="0.00" timeLoss="249.02" rerouteNo="0" devices="tripinfo_16" vType="DEFAULT_VEHTYPE" speedFactor="1.01" vaporized=""/>
    <tripinfo id="14" depart="2248.00" departLane="SEB2T_0" departPos="5.10" departSpeed="15.17" departDelay="-0.33" arrival="2506.00" arrivalLane="four-arm2WB_1" arrivalPos="759.55" arrivalSpeed="14.80" duration="258.00" routeLength="2184.97" waitingTime="100.00" waitingCount="1" stopTime="0.00" timeLoss="112.66" rerouteNo="0" devices="tripinfo_14" vType="DEFAULT_VEHTYPE" speedFactor="1.09" vaporized=""/>
    <tripinfo id="10" depart="2015.00" departLane="SEB2T_0" departPos="5.10" departSpeed="14.16" departDelay="-0.92" arrival="2507.00" arrivalLane="four-arm2WB_0" arrivalPos="759.55" arrivalSpeed="13.96" duration="492.00" routeLength="2184.97" waitingTime="312.00" waitingCount="3" stopTime="0.00" timeLoss="335.99" rerouteNo="0" devices="tripinfo_10" vType="DEFAULT_VEHTYPE" speedFactor="1.02" vaporized=""/>
    <tripinfo id="28" depart="2116.00" departLane="WB2four-arm_LTL_1" departPos="5.10" departSpeed="16.39" departDelay="-0.75" arrival="2544.00" arrivalLane="T2SEB_0" arrivalPos="296.94" arrivalSpeed="15.98" duration="428.00" routeLength="2221.49" waitingTime="277.00" waitingCount="1" stopTime="0.00" timeLoss="290.87" rerouteNo="0" devices="tripinfo_28" vType="DEFAULT_VEHTYPE" speedFactor="1.18" vaporized=""/>
    <tripinfo id="56" depart="2252.00" departLane="NWB2four-arm_LTL_0" departPos="5.10" departSpeed="14.41" departDelay="-0.80" arrival="2548.00" arrivalLane="incoming2EB_0" arrivalPos="304.25" arrivalSpeed="14.04" duration="296.00" routeLength="1431.94" waitingTime="177.00" waitingCount="2" stopTime="0.00" timeLoss="195.27" rerouteNo="0" devices="tripinfo_56" vType="DEFAULT_VEHTYPE" speedFactor="1.04" vaporized=""/>
    <tripinfo id="61" depart="2341.00" departLane="NWB2four-arm_LTL_0" departPos="5.10" departSpeed="12.51" departDelay="-0.13" arrival="2550.00" arrivalLane="incoming2EB_0" arrivalPos="304.25" arrivalSpeed="11.41" duration="209.00" routeLength="1431.94" waitingTime="82.00" waitingCount="1" stopTime="0.00" timeLoss="93.60" rerouteNo="0" devices="tripinfo_61" vType="DEFAULT_VEHTYPE" speedFactor="0.90" vaporized=""/>
    <tripinfo id="18" depart="2239.00" departLane="WB2four-arm_LTL_1" departPos="5.10" departSpeed="13.29" departDelay="-0.54" arrival="2551.00" arrivalLane="incoming2EB_1" arrivalPos="304.25" arrivalSpeed="12.38" duration="312.00" routeLength="1879.16" waitingTime="152.00" waitingCount="2" stopTime="0.00" timeLoss="170.63" rerouteNo="0" devices="tripinfo_18" vType="DEFAULT_VEHTYPE" speedFactor="0.96" vaporized=""/>
    <tripinfo id="34" depart="2279.00" departLane="WB2four-arm_LTL_1" departPos="5.10" departSpeed="14.49" departDelay="-0.74" arrival="2564.00" arrivalLane="T2SEB_0" arrivalPos="296.94" arrivalSpeed="14.10" duration="285.00" routeLength="2216.22" waitingTime="114.00" waitingCount="1" stopTime="0.00" timeLoss="130.50" rerouteNo="0" devices="tripinfo_34" vType="DEFAULT_VEHTYPE" speedFactor="1.04" vaporized=""/>
    <tripinfo id="27" depart="2313.00" departLane="WB2four-arm_LTL_1" departPos="5.10" departSpeed="13.85" departDelay="-0.26" arrival="2576.00" arrivalLane="T2SEB_1" arrivalPos="296.94" arrivalSpeed="13.67" duration="263.00" routeLength="2221.49" waitingTime="79.00" waitingCount="1" stopTime="0.00" timeLoss="100.29" rerouteNo="0" devices="tripinfo_27" vType="DEFAULT_VEHTYPE" speedFactor="1.00" vaporized=""/>
    <tripinfo id="32" depart="2169.00" departLane="WB2four-arm_LTL_0" departPos="5.10" departSpeed="12.51" departDelay="-0.75" arrival="2577.00" arrivalLane="T2SEB_0" arrivalPos="296.94" arrivalSpeed="12.28" duration="408.00" routeLength="2221.49" waitingTime="213.00" waitingCount="1" stopTime="0.00" timeLoss="227.64" rerouteNo="0" devices="tripinfo_32" vType="DEFAULT_VEHTYPE" speedFactor="0.90" vaporized=""/>
    <tripinfo id="44" depart="2198.00" departLane="WB2four-arm_LTL_1" departPos="5.10" departSpeed="14.31" departDelay="-0.82" arrival="2578.00" arrivalLane="four-arm2NWB_1" arrivalPos="313.79" arrivalSpeed="13.28" duration="380.00" routeLength="1087.89" waitingTime="295.00" waitingCount="1" stopTime="0.00" timeLoss="303.35" rerouteNo="0" devices="tripinfo_44" vType="DEFAULT_VEHTYPE" speedFactor="1.03" vaporized=""/>
    <tripinfo id="39" depart="2359.00" departLane="WB2four-arm_LTL_1" departPos="5.10" departSpeed="12.18" departDelay="-0.25" arrival="2585.00" arrivalLane="four-arm2NWB_0" arrivalPos="313.79" arrivalSpeed="11.21" duration="226.00" routeLength="1087.89" waitingTime="126.00" waitingCount="1" stopTime="0.00" timeLoss="135.18" rerouteNo="0" devices="tripinfo_39" vType="DEFAULT_VEHTYPE" speedFactor="0.88" vaporized=""/>
    <tripinfo id="19" depart="2436.00" departLane="WB2four-arm_LTL_1" departPos="5.10" departSpeed="11.81" departDelay="-0.32" arrival="2604.00" arrivalLane="incoming2EB_0" arrivalPos="304.25" arrivalSpeed="11.10" duration="168.00" routeLength="1879.16" waitingTime="0.00" waitingCount="0" stopTime="0.00" timeLoss="8.88" rerouteNo="0" devices="tripinfo_19" vType="DEFAULT_VEHTYPE" speedFactor="0.85" vaporized=""/>
    <tripinfo id="35" depart="2587.00" departLane="WB2four-arm_LTL_0" departPos="5.10" departSpeed="15.22" departDelay="-0.01" arrival="2664.00" arrivalLane="four-arm2NWB_1" arrivalPos="313.79" arrivalSpeed="14.91" duration="77.00" routeLength="1087.89" waitingTime="0.00" waitingCount="0" stopTime="0.00" timeLoss="4.17" rerouteNo="0" devices="tripinfo_35" vType="DEFAULT_VEHTYPE" speedFactor="1.10" vaporized=""/>
    <tripinfo id="60" depart="2573.00" departLane="NWB2four-arm_LTL_0" departPos="5.10" departSpeed="14.12" departDelay="-0.19" arrival="2863.00" arrivalLane="incoming2EB_0" arrivalPos="304.25" arrivalSpeed="13.86" duration="290.00" routeLength="1431.94" waitingTime="170.00" waitingCount="2" stopTime="0.00" timeLoss="187.00" rerouteNo="0" devices="tripinfo_60" vType="DEFAULT_VEHTYPE" speedFactor="1.02" vaporized=""/>
    <tripinfo id="63" depart="2442.00" departLane="NWB2four-arm_LTL_0" departPos="5.10" departSpeed="11.87" departDelay="-0.60" arrival="2865.00" arrivalLane="incoming2EB_0" arrivalPos="304.25" arrivalSpeed="11.54" duration="423.00" routeLength="1431.94" waitingTime="289.00" waitingCount="1" stopTime="0.00" timeLoss="300.97" rerouteNo="0" devices="tripinfo_63" vType="DEFAULT_VEHTYPE" speedFactor="0.85" vaporized=""/>
    <tripinfo id="48" depart="2807.00" departLane="NWB2four-arm_LTL_0" departPos="5.10" departSpeed="13.93" departDelay="-0.46" arrival="2892.00" arrivalLane="four-arm2WB_0" arrivalPos="759.55" arrivalSpeed="13.76" duration="85.00" routeLength="1077.79" waitingTime="0.00" waitingCount="0" stopTime="0.00" timeLoss="6.26" rerouteNo="0" devices="tripinfo_48" vType="DEFAULT_VEHTYPE" speedFactor="1.00" vaporized=""/>
    <tripinfo id="0" depart="2488.00" departLane="NEB2incoming_LTL_0" departPos="5.10" departSpeed="16.24" departDelay="-0.08" arrival="2899.00" arrivalLane="four-arm2WB_0" arrivalPos="759.55" arrivalSpeed="14.97" duration="411.00" routeLength="1895.02" waitingTime="280.00" waitingCount="1" stopTime="0.00" timeLoss="293.78" rerouteNo="0" devices="tripinfo_0" vType="DEFAULT_VEHTYPE" speedFactor="1.17" vaporized=""/>
    <tripinfo id="9" depart="2300.00" departLane="EB2incoming_0" departPos="5.10" departSpeed="15.11" departDelay="-0.46" arrival="2905.00" arrivalLane="four-arm2WB_0" arrivalPos="759.55" arrivalSpeed="14.88" duration="605.00" routeLength="1879.21" waitingTime="462.00" waitingCount="2" stopTime="0.00" timeLoss="479.86" rerouteNo="0" devices="tripinfo_9" vType="DEFAULT_VEHTYPE" speedFactor="1.09" vaporized=""/>
    <tripinfo id="36" depart="2896.00" departLane="WB2four-arm_LTL_0" departPos="5.10" departSpeed="12.49" departDelay="-0.69" arrival="2990.00" arrivalLane="four-arm2NWB_0" arrivalPos="313.79" arrivalSpeed="11.95" duration="94.00" routeLength="1087.89" waitingTime="0.00" waitingCount="0" stopTime="0.00" timeLoss="5.27" rerouteNo="0" devices="tripinfo_36" vType="DEFAULT_VEHTYPE" speedFactor="0.90" vaporized=""/>
    <tripinfo id="6" depart="2852.00" departLane="EB2incoming_0" departPos="5.10" departSpeed="13.83" departDelay="-0.53" arrival="2995.00" arrivalLane="four-arm2WB_0" arrivalPos="759.55" arrivalSpeed="12.70" duration="143.00" routeLength="1879.21" waitingTime="0.00" waitingCount="0" stopTime="0.00" timeLoss="6.80" rerouteNo="0" devices="tripinfo_6" vType="DEFAULT_VEHTYPE" speedFactor="1.00" vaporized=""/>
    <tripinfo id="4" depart="2950.00" departLane="NEB2incoming_LTL_0" departPos="5.10" departSpeed="14.22" departDelay="-0.16" arrival="3326.00" arrivalLane="four-arm2WB_0" arrivalPos="759.55" arrivalSpeed="13.99" duration="376.00" routeLength="1895.02" waitingTime="225.00" waitingCount="2" stopTime="0.00" timeLoss="241.88" rerouteNo="0" devices="tripinfo_4" vType="DEFAULT_VEHTYPE" speedFactor="1.02" vaporized=""/>
    <tripinfo id="11" depart="2901.00" departLane="SEB2T_0" departPos="5.10" departSpeed="15.87" departDelay="-0.62" arrival="3363.00" arrivalLane="four-arm2WB_0" arrivalPos="759.55" arrivalSpeed="14.97" duration="462.00" routeLength="2184.97" waitingTime="304.00" waitingCount="2" stopTime="0.00" timeLoss="322.97" rerouteNo="0" devices="tripinfo_11" vType="DEFAULT_VEHTYPE" speedFactor="1.14" vaporized=""/>
    <tripinfo id="29" depart="3001.00" departLane="WB2four-arm_LTL_0" departPos="5.10" departSpeed="13.47" departDelay="-0.37" arrival="3385.00" arrivalLane="T2SEB_0" arrivalPos="296.94" arrivalSpeed="12.51" duration="384.00" routeLength="2221.49" waitingTime="203.00" waitingCount="1" stopTime="0.00" timeLoss="216.85" rerouteNo="0" devices="tripinfo_29" vType="DEFAULT_VEHTYPE" speedFactor="0.97" vaporized=""/>
    <tripinfo id="21" depart="3181.00" departLane="WB2four-arm_LTL_1" departPos="5.10" departSpeed="15.04" departDelay="-0.59" arrival="3491.00" arrivalLane="incoming2EB_1" arrivalPos="304.25" arrivalSpeed="14.38" duration="310.00" routeLength="1879.16" waitingTime="166.00" waitingCount="2" stopTime="0.00" timeLoss="184.96" rerouteNo="0" devices="tripinfo_21" vType="DEFAULT_VEHTYPE" speedFactor="1.08" vaporized=""/>
    <tripinfo id="64" depart="3225.00" departLane="NWB2four-arm_LTL_0" departPos="5.10" departSpeed="15.55" departDelay="-0.98" arrival="3491.00" arrivalLane="incoming2EB_0" arrivalPos="304.25" arrivalSpeed="15.53" duration="266.00" routeLength="1431.94" waitingTime="161.00" waitingCount="1" stopTime="0.00" timeLoss="172.76" rerouteNo="0" devices="tripinfo_64" vType="DEFAULT_VEHTYPE" speedFactor="1.12" vaporized=""/>
    <tripinfo id="50" depart="3425.00" departLane="NWB2four-arm_LTL_0" departPos="5.10" departSpeed="13.71" departDelay="-0.09" arrival="3538.00" arrivalLane="four-arm2WB_0" arrivalPos="759.55" arrivalSpeed="13.71" duration="113.00" routeLength="1077.79" waitingTime="22.00" waitingCount="1" stopTime="0.00" timeLoss="33.34" rerouteNo="0" devices="tripinfo_50" vType="DEFAULT_VEHTYPE" speedFactor="0.99" vaporized=""/>
    <tripinfo id="49" depart="3573.00" departLane="NWB2four-arm_LTL_0" departPos="5.10" departSpeed="13.02" departDelay="-0.33" arrival="3706.00" arrivalLane="four-arm2WB_0" arrivalPos="759.55" arrivalSpeed="12.63" duration="133.00" routeLength="1077.79" waitingTime="41.00" waitingCount="1" stopTime="0.00" timeLoss="49.28" rerouteNo="0" devices="tripinfo_49" vType="DEFAULT_VEHTYPE" speedFactor="0.94" vaporized=""/>
    <tripinfo id="30" depart="3363.00" departLane="WB2four-arm_LTL_0" departPos="5.10" departSpeed="14.11" departDelay="-0.45" arrival="3814.00" arrivalLane="T2SEB_0" arrivalPos="296.94" arrivalSpeed="12.88" duration="451.00" routeLength="2221.49" waitingTime="278.00" waitingCount="1" stopTime="0.00" timeLoss="292.38" rerouteNo="0" devices="tripinfo_30" vType="DEFAULT_VEHTYPE" speedFactor="1.02" vaporized=""/>
</tripinfos>
