<?xml version="1.0" encoding="UTF-8"?>

<!-- generated on 12/09/19 00:21:00 by Eclipse SUMO Version 1.3.1
<configuration xmlns:xsi="http://www.w3.org/2001/XMLSchema-instance" xsi:noNamespaceSchemaLocation="http://sumo.dlr.de/xsd/sumoConfiguration.xsd">

    <input>
        <net-file value="simpleNetwork.net.xml"/>
        <route-files value="od_route_file.odtrips.rou.xml"/>
    </input>

    <output>
        <tripinfo-output value="tripinfo.xml"/>
    </output>

    <time>
        <begin value="0"/>
        <end value="2000"/>
    </time>

    <traci_server>
        <remote-port value="55806"/>
    </traci_server>

</configuration>
-->

<tripinfos xmlns:xsi="http://www.w3.org/2001/XMLSchema-instance" xsi:noNamespaceSchemaLocation="http://sumo.dlr.de/xsd/tripinfo_file.xsd">
    <tripinfo id="57" depart="27.00" departLane="NWB2four-arm_LTL_0" departPos="5.10" departSpeed="14.72" departDelay="-0.48" arrival="404.00" arrivalLane="incoming2EB_0" arrivalPos="304.25" arrivalSpeed="14.04" duration="377.00" routeLength="1431.94" waitingTime="269.00" waitingCount="1" stopTime="0.00" timeLoss="278.23" rerouteNo="0" devices="tripinfo_57" vType="DEFAULT_VEHTYPE" speedFactor="1.06" vaporized=""/>
    <tripinfo id="40" depart="410.00" departLane="WB2four-arm_LTL_1" departPos="5.10" departSpeed="11.54" departDelay="-0.68" arrival="564.00" arrivalLane="four-arm2NWB_0" arrivalPos="313.79" arrivalSpeed="11.34" duration="154.00" routeLength="1087.89" waitingTime="48.00" waitingCount="1" stopTime="0.00" timeLoss="58.49" rerouteNo="0" devices="tripinfo_40" vType="DEFAULT_VEHTYPE" speedFactor="0.83" vaporized=""/>
    <tripinfo id="31" depart="423.00" departLane="WB2four-arm_LTL_1" departPos="5.10" departSpeed="14.53" departDelay="-0.68" arrival="587.00" arrivalLane="T2SEB_0" arrivalPos="296.94" arrivalSpeed="13.78" duration="164.00" routeLength="2221.49" waitingTime="0.00" waitingCount="0" stopTime="0.00" timeLoss="9.78" rerouteNo="0" devices="tripinfo_31" vType="DEFAULT_VEHTYPE" speedFactor="1.05" vaporized=""/>
    <tripinfo id="37" depart="557.00" departLane="WB2four-arm_LTL_0" departPos="5.10" departSpeed="11.90" departDelay="-0.09" arrival="656.00" arrivalLane="four-arm2NWB_0" arrivalPos="313.79" arrivalSpeed="10.70" duration="99.00" routeLength="1087.89" waitingTime="0.00" waitingCount="0" stopTime="0.00" timeLoss="6.22" rerouteNo="0" devices="tripinfo_37" vType="DEFAULT_VEHTYPE" speedFactor="0.86" vaporized=""/>
    <tripinfo id="17" depart="163.00" departLane="WB2four-arm_LTL_0" departPos="5.10" departSpeed="13.03" departDelay="-0.02" arrival="664.00" arrivalLane="incoming2EB_0" arrivalPos="304.25" arrivalSpeed="12.33" duration="501.00" routeLength="1879.16" waitingTime="339.00" waitingCount="2" stopTime="0.00" timeLoss="356.38" rerouteNo="0" devices="tripinfo_17" vType="DEFAULT_VEHTYPE" speedFactor="0.94" vaporized=""/>
    <tripinfo id="24" depart="436.00" departLane="WB2four-arm_LTL_0" departPos="5.10" departSpeed="12.31" departDelay="-0.43" arrival="666.00" arrivalLane="incoming2EB_0" arrivalPos="304.25" arrivalSpeed="11.07" duration="230.00" routeLength="1879.16" waitingTime="64.00" waitingCount="1" stopTime="0.00" timeLoss="76.73" rerouteNo="0" devices="tripinfo_24" vType="DEFAULT_VEHTYPE" speedFactor="0.89" vaporized=""/>
    <tripinfo id="47" depart="363.00" departLane="NWB2four-arm_LTL_1" departPos="5.10" departSpeed="15.04" departDelay="-0.29" arrival="695.00" arrivalLane="four-arm2WB_1" arrivalPos="759.55" arrivalSpeed="14.80" duration="332.00" routeLength="1077.79" waitingTime="249.00" waitingCount="1" stopTime="0.00" timeLoss="259.47" rerouteNo="0" devices="tripinfo_47" vType="DEFAULT_VEHTYPE" speedFactor="1.08" vaporized=""/>
    <tripinfo id="46" depart="353.00" departLane="NWB2four-arm_LTL_0" departPos="5.10" departSpeed="14.03" departDelay="-0.09" arrival="696.00" arrivalLane="four-arm2WB_0" arrivalPos="759.55" arrivalSpeed="13.68" duration="343.00" routeLength="1077.79" waitingTime="257.00" waitingCount="1" stopTime="0.00" timeLoss="265.02" rerouteNo="0" devices="tripinfo_46" vType="DEFAULT_VEHTYPE" speedFactor="1.01" vaporized=""/>
    <tripinfo id="7" depart="401.00" departLane="EB2incoming_0" departPos="5.10" departSpeed="14.31" departDelay="-0.49" arrival="907.00" arrivalLane="four-arm2WB_0" arrivalPos="759.55" arrivalSpeed="13.66" duration="506.00" routeLength="1879.21" waitingTime="357.00" waitingCount="2" stopTime="0.00" timeLoss="374.44" rerouteNo="0" devices="tripinfo_7" vType="DEFAULT_VEHTYPE" speedFactor="1.03" vaporized=""/>
    <tripinfo id="1" depart="476.00" departLane="NEB2incoming_LTL_0" departPos="5.10" departSpeed="13.03" departDelay="-0.94" arrival="912.00" arrivalLane="four-arm2WB_0" arrivalPos="759.55" arrivalSpeed="12.81" duration="436.00" routeLength="1895.02" waitingTime="270.00" waitingCount="2" stopTime="0.00" timeLoss="289.18" rerouteNo="0" devices="tripinfo_1" vType="DEFAULT_VEHTYPE" speedFactor="0.94" vaporized=""/>
    <tripinfo id="25" depart="785.00" departLane="WB2four-arm_LTL_1" departPos="5.10" departSpeed="15.60" departDelay="-0.27" arrival="951.00" arrivalLane="T2SEB_0" arrivalPos="296.94" arrivalSpeed="15.52" duration="166.00" routeLength="2221.49" waitingTime="9.00" waitingCount="1" stopTime="0.00" timeLoss="21.91" rerouteNo="0" devices="tripinfo_25" vType="DEFAULT_VEHTYPE" speedFactor="1.12" vaporized=""/>
    <tripinfo id="3" depart="754.00" departLane="NEB2incoming_LTL_0" departPos="5.10" departSpeed="14.54" departDelay="-0.69" arrival="963.00" arrivalLane="four-arm2WB_0" arrivalPos="759.55" arrivalSpeed="14.39" duration="209.00" routeLength="1895.02" waitingTime="66.00" waitingCount="1" stopTime="0.00" timeLoss="77.21" rerouteNo="0" devices="tripinfo_3" vType="DEFAULT_VEHTYPE" speedFactor="1.05" vaporized=""/>
    <tripinfo id="38" depart="833.00" departLane="WB2four-arm_LTL_1" departPos="5.10" departSpeed="12.87" departDelay="-0.34" arrival="975.00" arrivalLane="four-arm2NWB_0" arrivalPos="313.79" arrivalSpeed="12.56" duration="142.00" routeLength="1087.89" waitingTime="48.00" waitingCount="1" stopTime="0.00" timeLoss="56.65" rerouteNo="0" devices="tripinfo_38" vType="DEFAULT_VEHTYPE" speedFactor="0.93" vaporized=""/>
    <tripinfo id="15" depart="724.00" departLane="WB2four-arm_LTL_0" departPos="5.10" departSpeed="14.26" departDelay="-0.95" arrival="992.00" arrivalLane="incoming2EB_0" arrivalPos="304.25" arrivalSpeed="13.50" duration="268.00" routeLength="1879.16" waitingTime="121.00" waitingCount="2" stopTime="0.00" timeLoss="136.15" rerouteNo="0" devices="tripinfo_15" vType="DEFAULT_VEHTYPE" speedFactor="1.03" vaporized=""/>
    <tripinfo id="22" depart="842.00" departLane="WB2four-arm_LTL_1" departPos="5.10" departSpeed="12.20" departDelay="-0.52" arrival="1006.00" arrivalLane="incoming2EB_0" arrivalPos="304.25" arrivalSpeed="11.33" duration="164.00" routeLength="1879.16" waitingTime="0.00" waitingCount="0" stopTime="0.00" timeLoss="9.10" rerouteNo="0" devices="tripinfo_22" vType="DEFAULT_VEHTYPE" speedFactor="0.88" vaporized=""/>
    <tripinfo id="51" depart="1034.00" departLane="NWB2four-arm_LTL_0" departPos="5.10" departSpeed="16.09" departDelay="-0.54" arrival="1134.00" arrivalLane="four-arm2WB_0" arrivalPos="759.55" arrivalSpeed="15.73" duration="100.00" routeLength="1077.79" waitingTime="24.00" waitingCount="1" stopTime="0.00" timeLoss="32.00" rerouteNo="0" devices="tripinfo_51" vType="DEFAULT_VEHTYPE" speedFactor="1.16" vaporized=""/>
    <tripinfo id="52" depart="1130.00" departLane="NWB2four-arm_LTL_0" departPos="5.10" departSpeed="14.14" departDelay="-0.77" arrival="1213.00" arrivalLane="four-arm2WB_0" arrivalPos="759.55" arrivalSpeed="13.53" duration="83.00" routeLength="1077.79" waitingTime="0.00" waitingCount="0" stopTime="0.00" timeLoss="5.71" rerouteNo="0" devices="tripinfo_52" vType="DEFAULT_VEHTYPE" speedFactor="1.02" vaporized=""/>
    <tripinfo id="55" depart="891.00" departLane="NWB2four-arm_LTL_0" departPos="5.10" departSpeed="13.08" departDelay="-0.90" arrival="1319.00" arrivalLane="incoming2EB_0" arrivalPos="304.25" arrivalSpeed="13.06" duration="428.00" routeLength="1431.94" waitingTime="303.00" waitingCount="2" stopTime="0.00" timeLoss="317.17" rerouteNo="0" devices="tripinfo_55" vType="DEFAULT_VEHTYPE" speedFactor="0.94" vaporized=""/>
    <tripinfo id="59" depart="997.00" departLane="NWB2four-arm_LTL_0" departPos="5.10" departSpeed="13.00" departDelay="-0.76" arrival="1319.00" arrivalLane="incoming2EB_1" arrivalPos="304.25" arrivalSpeed="11.90" duration="322.00" routeLength="1431.94" waitingTime="194.00" waitingCount="2" stopTime="0.00" timeLoss="210.81" rerouteNo="0" devices="tripinfo_59" vType="DEFAULT_VEHTYPE" speedFactor="0.94" vaporized=""/>
    <tripinfo id="58" depart="1184.00" departLane="NWB2four-arm_LTL_0" departPos="5.10" departSpeed="14.03" departDelay="-0.71" arrival="1320.00" arrivalLane="incoming2EB_0" arrivalPos="304.25" arrivalSpeed="13.98" duration="136.00" routeLength="1431.94" waitingTime="20.00" waitingCount="1" stopTime="0.00" timeLoss="33.11" rerouteNo="0" devices="tripinfo_58" vType="DEFAULT_VEHTYPE" speedFactor="1.01" vaporized=""/>
    <tripinfo id="13" depart="666.00" departLane="SEB2T_0" departPos="5.10" departSpeed="15.15" departDelay="-0.67" arrival="1350.00" arrivalLane="four-arm2WB_0" arrivalPos="759.55" arrivalSpeed="14.08" duration="684.00" routeLength="2175.95" waitingTime="519.00" waitingCount="3" stopTime="0.00" timeLoss="539.79" rerouteNo="0" devices="tripinfo_13" vType="DEFAULT_VEHTYPE" speedFactor="1.09" vaporized=""/>
    <tripinfo id="62" depart="1238.00" departLane="NWB2four-arm_LTL_0" departPos="5.10" departSpeed="13.54" departDelay="-0.90" arrival="1351.00" arrivalLane="incoming2EB_0" arrivalPos="304.25" arrivalSpeed="12.62" duration="113.00" routeLength="1431.94" waitingTime="0.00" waitingCount="0" stopTime="0.00" timeLoss="6.31" rerouteNo="0" devices="tripinfo_62" vType="DEFAULT_VEHTYPE" speedFactor="0.98" vaporized=""/>
    <tripinfo id="8" depart="819.00" departLane="EB2incoming_0" departPos="5.10" departSpeed="13.77" departDelay="-0.88" arrival="1353.00" arrivalLane="four-arm2WB_0" arrivalPos="759.55" arrivalSpeed="12.60" duration="534.00" routeLength="1879.21" waitingTime="380.00" waitingCount="2" stopTime="0.00" timeLoss="397.13" rerouteNo="0" devices="tripinfo_8" vType="DEFAULT_VEHTYPE" speedFactor="0.99" vaporized=""/>
    <tripinfo id="5" depart="1283.00" departLane="EB2incoming_0" departPos="5.10" departSpeed="12.36" departDelay="-0.82" arrival="1444.00" arrivalLane="four-arm2WB_0" arrivalPos="759.55" arrivalSpeed="12.12" duration="161.00" routeLength="1879.21" waitingTime="0.00" waitingCount="0" stopTime="0.00" timeLoss="8.90" rerouteNo="0" devices="tripinfo_5" vType="DEFAULT_VEHTYPE" speedFactor="0.89" vaporized=""/>
    <tripinfo id="33" depart="1302.00" departLane="WB2four-arm_LTL_0" departPos="5.10" departSpeed="11.47" departDelay="-0.21" arrival="1512.00" arrivalLane="T2SEB_0" arrivalPos="296.94" arrivalSpeed="10.79" duration="210.00" routeLength="2221.49" waitingTime="0.00" waitingCount="0" stopTime="0.00" timeLoss="14.04" rerouteNo="0" devices="tripinfo_33" vType="DEFAULT_VEHTYPE" speedFactor="0.83" vaporized=""/>
    <tripinfo id="42" depart="1762.00" departLane="WB2four-arm_LTL_1" departPos="5.10" departSpeed="12.94" departDelay="-0.81" arrival="1852.00" arrivalLane="four-arm2NWB_0" arrivalPos="313.79" arrivalSpeed="12.26" duration="90.00" routeLength="1087.89" waitingTime="0.00" waitingCount="0" stopTime="0.00" timeLoss="4.71" rerouteNo="0" devices="tripinfo_42" vType="DEFAULT_VEHTYPE" speedFactor="0.93" vaporized=""/>
    <tripinfo id="12" depart="1372.00" departLane="SEB2T_0" departPos="5.10" departSpeed="12.12" departDelay="-0.68" arrival="1868.00" arrivalLane="four-arm2WB_0" arrivalPos="759.55" arrivalSpeed="11.00" duration="496.00" routeLength="2175.95" waitingTime="301.00" waitingCount="1" stopTime="0.00" timeLoss="316.18" rerouteNo="0" devices="tripinfo_12" vType="DEFAULT_VEHTYPE" speedFactor="0.87" vaporized=""/>
    <tripinfo id="26" depart="1752.00" departLane="WB2four-arm_LTL_0" departPos="5.10" departSpeed="15.72" departDelay="-0.65" arrival="1905.00" arrivalLane="T2SEB_0" arrivalPos="296.94" arrivalSpeed="14.45" duration="153.00" routeLength="2221.49" waitingTime="0.00" waitingCount="0" stopTime="0.00" timeLoss="9.23" rerouteNo="0" devices="tripinfo_26" vType="DEFAULT_VEHTYPE" speedFactor="1.13" vaporized=""/>
    <tripinfo id="20" depart="1651.00" departLane="WB2four-arm_LTL_0" departPos="5.10" departSpeed="12.74" departDelay="-0.42" arrival="1950.00" arrivalLane="incoming2EB_0" arrivalPos="304.25" arrivalSpeed="12.71" duration="299.00" routeLength="1879.16" waitingTime="137.00" waitingCount="1" stopTime="0.00" timeLoss="151.05" rerouteNo="0" devices="tripinfo_20" vType="DEFAULT_VEHTYPE" speedFactor="0.92" vaporized=""/>
    <tripinfo id="45" depart="1822.00" departLane="NWB2four-arm_LTL_1" departPos="5.10" departSpeed="16.37" departDelay="-0.07" arrival="1975.00" arrivalLane="four-arm2WB_0" arrivalPos="759.55" arrivalSpeed="15.42" duration="153.00" routeLength="1077.79" waitingTime="77.00" waitingCount="1" stopTime="0.00" timeLoss="86.06" rerouteNo="0" devices="tripinfo_45" vType="DEFAULT_VEHTYPE" speedFactor="1.18" vaporized=""/>
    <tripinfo id="53" depart="1669.00" departLane="NWB2four-arm_LTL_0" departPos="5.10" departSpeed="13.18" departDelay="-0.56" arrival="1985.00" arrivalLane="four-arm2WB_0" arrivalPos="759.55" arrivalSpeed="12.23" duration="316.00" routeLength="1077.79" waitingTime="225.00" waitingCount="1" stopTime="0.00" timeLoss="233.07" rerouteNo="0" devices="tripinfo_53" vType="DEFAULT_VEHTYPE" speedFactor="0.95" vaporized=""/>
    <tripinfo id="54" depart="1972.00" departLane="NWB2four-arm_LTL_0" departPos="5.10" departSpeed="13.82" departDelay="-0.95" arrival="2056.00" arrivalLane="four-arm2WB_0" arrivalPos="759.55" arrivalSpeed="13.71" duration="84.00" routeLength="1077.79" waitingTime="0.00" waitingCount="0" stopTime="0.00" timeLoss="5.49" rerouteNo="0" devices="tripinfo_54" vType="DEFAULT_VEHTYPE" speedFactor="0.99" vaporized=""/>
    <tripinfo id="2" depart="1847.00" departLane="NEB2incoming_LTL_0" departPos="5.10" departSpeed="16.04" departDelay="-0.70" arrival="2186.00" arrivalLane="four-arm2WB_0" arrivalPos="759.55" arrivalSpeed="15.91" duration="339.00" routeLength="1895.02" waitingTime="205.00" waitingCount="1" stopTime="0.00" timeLoss="219.47" rerouteNo="0" devices="tripinfo_2" vType="DEFAULT_VEHTYPE" speedFactor="1.15" vaporized=""/>
    <tripinfo id="43" depart="2104.00" departLane="WB2four-arm_LTL_1" departPos="5.10" departSpeed="13.52" departDelay="-0.54" arrival="2244.00" arrivalLane="four-arm2NWB_0" arrivalPos="313.79" arrivalSpeed="12.92" duration="140.00" routeLength="1087.89" waitingTime="49.00" waitingCount="1" stopTime="0.00" timeLoss="58.80" rerouteNo="0" devices="tripinfo_43" vType="DEFAULT_VEHTYPE" speedFactor="0.97" vaporized=""/>
    <tripinfo id="41" depart="2138.00" departLane="WB2four-arm_LTL_0" departPos="5.10" departSpeed="15.31" departDelay="-0.70" arrival="2245.00" arrivalLane="four-arm2NWB_1" arrivalPos="313.79" arrivalSpeed="14.30" duration="107.00" routeLength="1087.89" waitingTime="24.00" waitingCount="1" stopTime="0.00" timeLoss="35.25" rerouteNo="0" devices="tripinfo_41" vType="DEFAULT_VEHTYPE" speedFactor="1.10" vaporized=""/>
    <tripinfo id="28" depart="2116.00" departLane="WB2four-arm_LTL_1" departPos="5.10" departSpeed="16.39" departDelay="-0.75" arrival="2261.00" arrivalLane="T2SEB_0" arrivalPos="296.94" arrivalSpeed="15.96" duration="145.00" routeLength="2221.49" waitingTime="0.00" waitingCount="0" stopTime="0.00" timeLoss="8.02" rerouteNo="0" devices="tripinfo_28" vType="DEFAULT_VEHTYPE" speedFactor="1.18" vaporized=""/>
    <tripinfo id="44" depart="2198.00" departLane="WB2four-arm_LTL_0" departPos="5.10" departSpeed="14.31" departDelay="-0.82" arrival="2279.00" arrivalLane="four-arm2NWB_1" arrivalPos="313.79" arrivalSpeed="13.39" duration="81.00" routeLength="1087.89" waitingTime="0.00" waitingCount="0" stopTime="0.00" timeLoss="4.01" rerouteNo="0" devices="tripinfo_44" vType="DEFAULT_VEHTYPE" speedFactor="1.03" vaporized=""/>
    <tripinfo id="23" depart="1943.00" departLane="WB2four-arm_LTL_1" departPos="5.10" departSpeed="16.28" departDelay="-0.63" arrival="2344.00" arrivalLane="incoming2EB_0" arrivalPos="304.25" arrivalSpeed="15.96" duration="401.00" routeLength="1879.16" waitingTime="268.00" waitingCount="2" stopTime="0.00" timeLoss="285.31" rerouteNo="0" devices="tripinfo_23" vType="DEFAULT_VEHTYPE" speedFactor="1.17" vaporized=""/>
    <tripinfo id="16" depart="1848.00" departLane="WB2four-arm_LTL_0" departPos="5.10" departSpeed="13.96" departDelay="-0.48" arrival="2348.00" arrivalLane="incoming2EB_0" arrivalPos="304.25" arrivalSpeed="13.80" duration="500.00" routeLength="1879.16" waitingTime="345.00" waitingCount="2" stopTime="0.00" timeLoss="364.62" rerouteNo="0" devices="tripinfo_16" vType="DEFAULT_VEHTYPE" speedFactor="1.01" vaporized=""/>
    <tripinfo id="39" depart="2359.00" departLane="WB2four-arm_LTL_1" departPos="5.10" departSpeed="12.18" departDelay="-0.25" arrival="2455.00" arrivalLane="four-arm2NWB_0" arrivalPos="313.79" arrivalSpeed="11.95" duration="96.00" routeLength="1087.89" waitingTime="0.00" waitingCount="0" stopTime="0.00" timeLoss="5.56" rerouteNo="0" devices="tripinfo_39" vType="DEFAULT_VEHTYPE" speedFactor="0.88" vaporized=""/>
    <tripinfo id="32" depart="2169.00" departLane="WB2four-arm_LTL_0" departPos="5.10" departSpeed="12.51" departDelay="-0.75" arrival="2661.00" arrivalLane="T2SEB_0" arrivalPos="296.94" arrivalSpeed="11.49" duration="492.00" routeLength="2212.46" waitingTime="301.00" waitingCount="1" stopTime="0.00" timeLoss="314.25" rerouteNo="0" devices="tripinfo_32" vType="DEFAULT_VEHTYPE" speedFactor="0.90" vaporized=""/>
    <tripinfo id="56" depart="2252.00" departLane="NWB2four-arm_LTL_0" departPos="5.10" departSpeed="14.41" departDelay="-0.80" arrival="2677.00" arrivalLane="incoming2EB_0" arrivalPos="304.25" arrivalSpeed="13.90" duration="425.00" routeLength="1431.94" waitingTime="308.00" waitingCount="2" stopTime="0.00" timeLoss="324.38" rerouteNo="0" devices="tripinfo_56" vType="DEFAULT_VEHTYPE" speedFactor="1.04" vaporized=""/>
    <tripinfo id="61" depart="2341.00" departLane="NWB2four-arm_LTL_0" departPos="5.10" departSpeed="12.51" departDelay="-0.13" arrival="2680.00" arrivalLane="incoming2EB_1" arrivalPos="304.25" arrivalSpeed="12.26" duration="339.00" routeLength="1431.94" waitingTime="207.00" waitingCount="2" stopTime="0.00" timeLoss="223.26" rerouteNo="0" devices="tripinfo_61" vType="DEFAULT_VEHTYPE" speedFactor="0.90" vaporized=""/>
    <tripinfo id="60" depart="2573.00" departLane="NWB2four-arm_LTL_0" departPos="5.10" departSpeed="14.12" departDelay="-0.19" arrival="2682.00" arrivalLane="incoming2EB_1" arrivalPos="304.25" arrivalSpeed="14.11" duration="109.00" routeLength="1431.94" waitingTime="0.00" waitingCount="0" stopTime="0.00" timeLoss="6.21" rerouteNo="0" devices="tripinfo_60" vType="DEFAULT_VEHTYPE" speedFactor="1.02" vaporized=""/>
    <tripinfo id="63" depart="2442.00" departLane="NWB2four-arm_LTL_0" departPos="5.10" departSpeed="11.87" departDelay="-0.60" arrival="2684.00" arrivalLane="incoming2EB_0" arrivalPos="304.25" arrivalSpeed="11.44" duration="242.00" routeLength="1431.94" waitingTime="103.00" waitingCount="2" stopTime="0.00" timeLoss="119.67" rerouteNo="0" devices="tripinfo_63" vType="DEFAULT_VEHTYPE" speedFactor="0.85" vaporized=""/>
    <tripinfo id="9" depart="2300.00" departLane="EB2incoming_0" departPos="5.10" departSpeed="15.11" departDelay="-0.46" arrival="2708.00" arrivalLane="four-arm2WB_0" arrivalPos="759.55" arrivalSpeed="14.35" duration="408.00" routeLength="1879.21" waitingTime="272.00" waitingCount="1" stopTime="0.00" timeLoss="283.07" rerouteNo="0" devices="tripinfo_9" vType="DEFAULT_VEHTYPE" speedFactor="1.09" vaporized=""/>
    <tripinfo id="0" depart="2488.00" departLane="NEB2incoming_LTL_0" departPos="5.10" departSpeed="16.24" departDelay="-0.08" arrival="2708.00" arrivalLane="four-arm2WB_1" arrivalPos="759.55" arrivalSpeed="15.88" duration="220.00" routeLength="1895.02" waitingTime="84.00" waitingCount="2" stopTime="0.00" timeLoss="102.60" rerouteNo="0" devices="tripinfo_0" vType="DEFAULT_VEHTYPE" speedFactor="1.17" vaporized=""/>
    <tripinfo id="10" depart="2015.00" departLane="SEB2T_0" departPos="5.10" departSpeed="14.16" departDelay="-0.92" arrival="2714.00" arrivalLane="four-arm2WB_0" arrivalPos="759.55" arrivalSpeed="13.03" duration="699.00" routeLength="2175.95" waitingTime="523.00" waitingCount="3" stopTime="0.00" timeLoss="544.36" rerouteNo="0" devices="tripinfo_10" vType="DEFAULT_VEHTYPE" speedFactor="1.02" vaporized=""/>
    <tripinfo id="35" depart="2587.00" departLane="WB2four-arm_LTL_1" departPos="5.10" departSpeed="15.22" departDelay="-0.01" arrival="2717.00" arrivalLane="four-arm2NWB_1" arrivalPos="313.79" arrivalSpeed="14.67" duration="130.00" routeLength="1087.89" waitingTime="49.00" waitingCount="1" stopTime="0.00" timeLoss="57.40" rerouteNo="0" devices="tripinfo_35" vType="DEFAULT_VEHTYPE" speedFactor="1.10" vaporized=""/>
    <tripinfo id="18" depart="2239.00" departLane="WB2four-arm_LTL_0" departPos="5.10" departSpeed="13.29" departDelay="-0.54" arrival="2743.00" arrivalLane="incoming2EB_0" arrivalPos="304.25" arrivalSpeed="12.37" duration="504.00" routeLength="1879.16" waitingTime="345.00" waitingCount="2" stopTime="0.00" timeLoss="361.91" rerouteNo="0" devices="tripinfo_18" vType="DEFAULT_VEHTYPE" speedFactor="0.96" vaporized=""/>
    <tripinfo id="19" depart="2436.00" departLane="WB2four-arm_LTL_1" departPos="5.10" departSpeed="11.81" departDelay="-0.32" arrival="2761.00" arrivalLane="incoming2EB_0" arrivalPos="304.25" arrivalSpeed="11.61" duration="325.00" routeLength="1879.16" waitingTime="145.00" waitingCount="2" stopTime="0.00" timeLoss="165.13" rerouteNo="0" devices="tripinfo_19" vType="DEFAULT_VEHTYPE" speedFactor="0.85" vaporized=""/>
    <tripinfo id="34" depart="2279.00" departLane="WB2four-arm_LTL_1" departPos="5.10" departSpeed="14.49" departDelay="-0.74" arrival="2765.00" arrivalLane="T2SEB_0" arrivalPos="296.94" arrivalSpeed="13.23" duration="486.00" routeLength="2221.49" waitingTime="313.00" waitingCount="2" stopTime="0.00" timeLoss="330.86" rerouteNo="0" devices="tripinfo_34" vType="DEFAULT_VEHTYPE" speedFactor="1.04" vaporized=""/>
    <tripinfo id="27" depart="2313.00" departLane="WB2four-arm_LTL_1" departPos="5.10" departSpeed="13.85" departDelay="-0.26" arrival="2772.00" arrivalLane="T2SEB_0" arrivalPos="296.94" arrivalSpeed="12.77" duration="459.00" routeLength="2221.49" waitingTime="276.00" waitingCount="2" stopTime="0.00" timeLoss="296.64" rerouteNo="0" devices="tripinfo_27" vType="DEFAULT_VEHTYPE" speedFactor="1.00" vaporized=""/>
    <tripinfo id="48" depart="2807.00" departLane="NWB2four-arm_LTL_0" departPos="5.10" departSpeed="13.93" departDelay="-0.46" arrival="2891.00" arrivalLane="four-arm2WB_0" arrivalPos="759.55" arrivalSpeed="13.77" duration="84.00" routeLength="1077.79" waitingTime="0.00" waitingCount="0" stopTime="0.00" timeLoss="6.07" rerouteNo="0" devices="tripinfo_48" vType="DEFAULT_VEHTYPE" speedFactor="1.00" vaporized=""/>
    <tripinfo id="36" depart="2896.00" departLane="WB2four-arm_LTL_0" departPos="5.10" departSpeed="12.49" departDelay="-0.69" arrival="3041.00" arrivalLane="four-arm2NWB_0" arrivalPos="313.79" arrivalSpeed="12.36" duration="145.00" routeLength="1087.89" waitingTime="49.00" waitingCount="1" stopTime="0.00" timeLoss="57.08" rerouteNo="0" devices="tripinfo_36" vType="DEFAULT_VEHTYPE" speedFactor="0.90" vaporized=""/>
    <tripinfo id="14" depart="2248.00" departLane="SEB2T_1" departPos="5.10" departSpeed="15.17" departDelay="-0.33" arrival="3063.00" arrivalLane="four-arm2WB_0" arrivalPos="759.55" arrivalSpeed="14.05" duration="815.00" routeLength="2175.95" waitingTime="646.00" waitingCount="4" stopTime="0.00" timeLoss="670.88" rerouteNo="0" devices="tripinfo_14" vType="DEFAULT_VEHTYPE" speedFactor="1.09" vaporized=""/>
    <tripinfo id="64" depart="3225.00" departLane="NWB2four-arm_LTL_0" departPos="5.10" departSpeed="15.55" departDelay="-0.98" arrival="3351.00" arrivalLane="incoming2EB_0" arrivalPos="304.25" arrivalSpeed="15.39" duration="126.00" routeLength="1431.94" waitingTime="21.00" waitingCount="1" stopTime="0.00" timeLoss="32.29" rerouteNo="0" devices="tripinfo_64" vType="DEFAULT_VEHTYPE" speedFactor="1.12" vaporized=""/>
    <tripinfo id="4" depart="2950.00" departLane="NEB2incoming_LTL_0" departPos="5.10" departSpeed="14.22" departDelay="-0.16" arrival="3386.00" arrivalLane="four-arm2WB_0" arrivalPos="759.55" arrivalSpeed="13.37" duration="436.00" routeLength="1895.02" waitingTime="288.00" waitingCount="1" stopTime="0.00" timeLoss="301.60" rerouteNo="0" devices="tripinfo_4" vType="DEFAULT_VEHTYPE" speedFactor="1.02" vaporized=""/>
    <tripinfo id="6" depart="2852.00" departLane="EB2incoming_0" departPos="5.10" departSpeed="13.83" departDelay="-0.53" arrival="3389.00" arrivalLane="four-arm2WB_0" arrivalPos="759.55" arrivalSpeed="13.37" duration="537.00" routeLength="1879.21" waitingTime="382.00" waitingCount="2" stopTime="0.00" timeLoss="401.17" rerouteNo="0" devices="tripinfo_6" vType="DEFAULT_VEHTYPE" speedFactor="1.00" vaporized=""/>
    <tripinfo id="21" depart="3181.00" departLane="WB2four-arm_LTL_1" departPos="5.10" departSpeed="15.04" departDelay="-0.59" arrival="3409.00" arrivalLane="incoming2EB_0" arrivalPos="304.25" arrivalSpeed="14.20" duration="228.00" routeLength="1879.16" waitingTime="91.00" waitingCount="1" stopTime="0.00" timeLoss="102.19" rerouteNo="0" devices="tripinfo_21" vType="DEFAULT_VEHTYPE" speedFactor="1.08" vaporized=""/>
    <tripinfo id="29" depart="3001.00" departLane="WB2four-arm_LTL_0" departPos="5.10" departSpeed="13.47" departDelay="-0.37" arrival="3445.00" arrivalLane="T2SEB_0" arrivalPos="296.94" arrivalSpeed="13.40" duration="444.00" routeLength="2221.49" waitingTime="263.00" waitingCount="1" stopTime="0.00" timeLoss="276.94" rerouteNo="0" devices="tripinfo_29" vType="DEFAULT_VEHTYPE" speedFactor="0.97" vaporized=""/>
    <tripinfo id="30" depart="3363.00" departLane="WB2four-arm_LTL_0" departPos="5.10" departSpeed="14.11" departDelay="-0.45" arrival="3533.00" arrivalLane="T2SEB_0" arrivalPos="296.94" arrivalSpeed="13.32" duration="170.00" routeLength="2221.49" waitingTime="0.00" waitingCount="0" stopTime="0.00" timeLoss="10.72" rerouteNo="0" devices="tripinfo_30" vType="DEFAULT_VEHTYPE" speedFactor="1.02" vaporized=""/>
    <tripinfo id="50" depart="3425.00" departLane="NWB2four-arm_LTL_0" departPos="5.10" departSpeed="13.71" departDelay="-0.09" arrival="3598.00" arrivalLane="four-arm2WB_0" arrivalPos="759.55" arrivalSpeed="13.29" duration="173.00" routeLength="1077.79" waitingTime="84.00" waitingCount="1" stopTime="0.00" timeLoss="93.56" rerouteNo="0" devices="tripinfo_50" vType="DEFAULT_VEHTYPE" speedFactor="0.99" vaporized=""/>
    <tripinfo id="49" depart="3573.00" departLane="NWB2four-arm_LTL_0" departPos="5.10" departSpeed="13.02" departDelay="-0.33" arrival="3662.00" arrivalLane="four-arm2WB_0" arrivalPos="759.55" arrivalSpeed="12.28" duration="89.00" routeLength="1077.79" waitingTime="0.00" waitingCount="0" stopTime="0.00" timeLoss="5.70" rerouteNo="0" devices="tripinfo_49" vType="DEFAULT_VEHTYPE" speedFactor="0.94" vaporized=""/>
    <tripinfo id="11" depart="2901.00" departLane="SEB2T_0" departPos="5.10" departSpeed="15.87" departDelay="-0.62" arrival="3801.00" arrivalLane="four-arm2WB_0" arrivalPos="759.55" arrivalSpeed="15.11" duration="900.00" routeLength="2175.95" waitingTime="740.00" waitingCount="3" stopTime="0.00" timeLoss="762.03" rerouteNo="0" devices="tripinfo_11" vType="DEFAULT_VEHTYPE" speedFactor="1.14" vaporized=""/>
</tripinfos>
