<?xml version="1.0" encoding="UTF-8"?>

<!-- generated on 12/06/19 15:39:49 by Eclipse SUMO Version 1.3.1
<configuration xmlns:xsi="http://www.w3.org/2001/XMLSchema-instance" xsi:noNamespaceSchemaLocation="http://sumo.dlr.de/xsd/sumoConfiguration.xsd">

    <input>
        <net-file value="simpleNetwork.net.xml"/>
        <route-files value="od_route_file.odtrips.rou.xml"/>
    </input>

    <output>
        <tripinfo-output value="tripinfo.xml"/>
    </output>

    <time>
        <begin value="0"/>
        <end value="2000"/>
    </time>

    <traci_server>
        <remote-port value="52569"/>
    </traci_server>

</configuration>
-->

<tripinfos xmlns:xsi="http://www.w3.org/2001/XMLSchema-instance" xsi:noNamespaceSchemaLocation="http://sumo.dlr.de/xsd/tripinfo_file.xsd">
    <tripinfo id="57" depart="27.00" departLane="NWB2four-arm_LTL_0" departPos="5.10" departSpeed="14.72" departDelay="-0.48" arrival="399.00" arrivalLane="incoming2EB_0" arrivalPos="304.25" arrivalSpeed="14.04" duration="372.00" routeLength="1431.94" waitingTime="264.00" waitingCount="1" stopTime="0.00" timeLoss="273.38" rerouteNo="0" devices="tripinfo_57" vType="DEFAULT_VEHTYPE" speedFactor="1.06" vaporized=""/>
    <tripinfo id="40" depart="410.00" departLane="WB2four-arm_LTL_1" departPos="5.10" departSpeed="11.54" departDelay="-0.68" arrival="559.00" arrivalLane="four-arm2NWB_0" arrivalPos="313.79" arrivalSpeed="11.34" duration="149.00" routeLength="1087.89" waitingTime="44.00" waitingCount="1" stopTime="0.00" timeLoss="53.44" rerouteNo="0" devices="tripinfo_40" vType="DEFAULT_VEHTYPE" speedFactor="0.83" vaporized=""/>
    <tripinfo id="31" depart="423.00" departLane="WB2four-arm_LTL_1" departPos="5.10" departSpeed="14.53" departDelay="-0.68" arrival="587.00" arrivalLane="T2SEB_0" arrivalPos="296.94" arrivalSpeed="13.78" duration="164.00" routeLength="2221.49" waitingTime="0.00" waitingCount="0" stopTime="0.00" timeLoss="9.86" rerouteNo="0" devices="tripinfo_31" vType="DEFAULT_VEHTYPE" speedFactor="1.05" vaporized=""/>
    <tripinfo id="37" depart="557.00" departLane="WB2four-arm_LTL_0" departPos="5.10" departSpeed="11.90" departDelay="-0.09" arrival="656.00" arrivalLane="four-arm2NWB_0" arrivalPos="313.79" arrivalSpeed="10.70" duration="99.00" routeLength="1087.89" waitingTime="0.00" waitingCount="0" stopTime="0.00" timeLoss="6.22" rerouteNo="0" devices="tripinfo_37" vType="DEFAULT_VEHTYPE" speedFactor="0.86" vaporized=""/>
    <tripinfo id="17" depart="163.00" departLane="WB2four-arm_LTL_0" departPos="5.10" departSpeed="13.03" departDelay="-0.02" arrival="659.00" arrivalLane="incoming2EB_0" arrivalPos="304.25" arrivalSpeed="12.09" duration="496.00" routeLength="1879.16" waitingTime="332.00" waitingCount="2" stopTime="0.00" timeLoss="351.15" rerouteNo="0" devices="tripinfo_17" vType="DEFAULT_VEHTYPE" speedFactor="0.94" vaporized=""/>
    <tripinfo id="24" depart="436.00" departLane="WB2four-arm_LTL_0" departPos="5.10" departSpeed="12.31" departDelay="-0.43" arrival="661.00" arrivalLane="incoming2EB_0" arrivalPos="304.25" arrivalSpeed="11.71" duration="225.00" routeLength="1879.16" waitingTime="59.00" waitingCount="1" stopTime="0.00" timeLoss="71.69" rerouteNo="0" devices="tripinfo_24" vType="DEFAULT_VEHTYPE" speedFactor="0.89" vaporized=""/>
    <tripinfo id="47" depart="363.00" departLane="NWB2four-arm_LTL_1" departPos="5.10" departSpeed="15.04" departDelay="-0.29" arrival="689.00" arrivalLane="four-arm2WB_0" arrivalPos="759.55" arrivalSpeed="14.29" duration="326.00" routeLength="1077.79" waitingTime="244.00" waitingCount="1" stopTime="0.00" timeLoss="253.49" rerouteNo="0" devices="tripinfo_47" vType="DEFAULT_VEHTYPE" speedFactor="1.08" vaporized=""/>
    <tripinfo id="46" depart="353.00" departLane="NWB2four-arm_LTL_0" departPos="5.10" departSpeed="14.03" departDelay="-0.09" arrival="691.00" arrivalLane="four-arm2WB_1" arrivalPos="759.55" arrivalSpeed="13.55" duration="338.00" routeLength="1077.79" waitingTime="252.00" waitingCount="1" stopTime="0.00" timeLoss="259.89" rerouteNo="0" devices="tripinfo_46" vType="DEFAULT_VEHTYPE" speedFactor="1.01" vaporized=""/>
    <tripinfo id="1" depart="476.00" departLane="NEB2incoming_LTL_0" departPos="5.10" departSpeed="13.03" departDelay="-0.94" arrival="958.00" arrivalLane="four-arm2WB_0" arrivalPos="759.55" arrivalSpeed="12.94" duration="482.00" routeLength="1873.98" waitingTime="321.00" waitingCount="2" stopTime="0.00" timeLoss="337.36" rerouteNo="0" devices="tripinfo_1" vType="DEFAULT_VEHTYPE" speedFactor="0.94" vaporized=""/>
    <tripinfo id="13" depart="666.00" departLane="SEB2T_0" departPos="5.10" departSpeed="15.15" departDelay="-0.67" arrival="960.00" arrivalLane="four-arm2WB_1" arrivalPos="759.55" arrivalSpeed="14.62" duration="294.00" routeLength="2184.97" waitingTime="123.00" waitingCount="2" stopTime="0.00" timeLoss="148.10" rerouteNo="0" devices="tripinfo_13" vType="DEFAULT_VEHTYPE" speedFactor="1.09" vaporized=""/>
    <tripinfo id="7" depart="401.00" departLane="EB2incoming_0" departPos="5.10" departSpeed="14.31" departDelay="-0.49" arrival="961.00" arrivalLane="four-arm2WB_0" arrivalPos="759.55" arrivalSpeed="13.44" duration="560.00" routeLength="1879.21" waitingTime="407.00" waitingCount="2" stopTime="0.00" timeLoss="428.23" rerouteNo="0" devices="tripinfo_7" vType="DEFAULT_VEHTYPE" speedFactor="1.03" vaporized=""/>
    <tripinfo id="25" depart="785.00" departLane="WB2four-arm_LTL_1" departPos="5.10" departSpeed="15.60" departDelay="-0.27" arrival="1006.00" arrivalLane="T2SEB_0" arrivalPos="296.94" arrivalSpeed="14.71" duration="221.00" routeLength="2221.49" waitingTime="63.00" waitingCount="1" stopTime="0.00" timeLoss="77.04" rerouteNo="0" devices="tripinfo_25" vType="DEFAULT_VEHTYPE" speedFactor="1.12" vaporized=""/>
    <tripinfo id="3" depart="754.00" departLane="NEB2incoming_LTL_0" departPos="5.10" departSpeed="14.54" departDelay="-0.69" arrival="1017.00" arrivalLane="four-arm2WB_0" arrivalPos="759.55" arrivalSpeed="13.80" duration="263.00" routeLength="1895.02" waitingTime="120.00" waitingCount="1" stopTime="0.00" timeLoss="131.81" rerouteNo="0" devices="tripinfo_3" vType="DEFAULT_VEHTYPE" speedFactor="1.05" vaporized=""/>
    <tripinfo id="15" depart="724.00" departLane="WB2four-arm_LTL_0" departPos="5.10" departSpeed="14.26" departDelay="-0.95" arrival="1033.00" arrivalLane="incoming2EB_0" arrivalPos="304.25" arrivalSpeed="14.19" duration="309.00" routeLength="1879.16" waitingTime="159.00" waitingCount="2" stopTime="0.00" timeLoss="176.49" rerouteNo="0" devices="tripinfo_15" vType="DEFAULT_VEHTYPE" speedFactor="1.03" vaporized=""/>
    <tripinfo id="38" depart="833.00" departLane="WB2four-arm_LTL_1" departPos="5.10" departSpeed="12.87" departDelay="-0.34" arrival="1035.00" arrivalLane="four-arm2NWB_0" arrivalPos="313.79" arrivalSpeed="11.97" duration="202.00" routeLength="1087.89" waitingTime="107.00" waitingCount="1" stopTime="0.00" timeLoss="116.74" rerouteNo="0" devices="tripinfo_38" vType="DEFAULT_VEHTYPE" speedFactor="0.93" vaporized=""/>
    <tripinfo id="22" depart="842.00" departLane="WB2four-arm_LTL_1" departPos="5.10" departSpeed="12.20" departDelay="-0.52" arrival="1036.00" arrivalLane="incoming2EB_0" arrivalPos="304.25" arrivalSpeed="11.49" duration="194.00" routeLength="1879.16" waitingTime="25.00" waitingCount="1" stopTime="0.00" timeLoss="39.18" rerouteNo="0" devices="tripinfo_22" vType="DEFAULT_VEHTYPE" speedFactor="0.88" vaporized=""/>
    <tripinfo id="51" depart="1034.00" departLane="NWB2four-arm_LTL_0" departPos="5.10" departSpeed="16.09" departDelay="-0.54" arrival="1164.00" arrivalLane="four-arm2WB_0" arrivalPos="759.55" arrivalSpeed="15.34" duration="130.00" routeLength="1077.79" waitingTime="53.00" waitingCount="1" stopTime="0.00" timeLoss="61.72" rerouteNo="0" devices="tripinfo_51" vType="DEFAULT_VEHTYPE" speedFactor="1.16" vaporized=""/>
    <tripinfo id="52" depart="1130.00" departLane="NWB2four-arm_LTL_0" departPos="5.10" departSpeed="14.14" departDelay="-0.77" arrival="1213.00" arrivalLane="four-arm2WB_0" arrivalPos="759.55" arrivalSpeed="13.22" duration="83.00" routeLength="1077.79" waitingTime="0.00" waitingCount="0" stopTime="0.00" timeLoss="5.64" rerouteNo="0" devices="tripinfo_52" vType="DEFAULT_VEHTYPE" speedFactor="1.02" vaporized=""/>
    <tripinfo id="58" depart="1184.00" departLane="NWB2four-arm_LTL_0" departPos="5.10" departSpeed="14.03" departDelay="-0.71" arrival="1347.00" arrivalLane="incoming2EB_0" arrivalPos="304.25" arrivalSpeed="13.77" duration="163.00" routeLength="1431.94" waitingTime="45.00" waitingCount="2" stopTime="0.00" timeLoss="59.63" rerouteNo="0" devices="tripinfo_58" vType="DEFAULT_VEHTYPE" speedFactor="1.01" vaporized=""/>
    <tripinfo id="55" depart="891.00" departLane="NWB2four-arm_LTL_0" departPos="5.10" departSpeed="13.08" departDelay="-0.90" arrival="1349.00" arrivalLane="incoming2EB_0" arrivalPos="304.25" arrivalSpeed="12.66" duration="458.00" routeLength="1431.94" waitingTime="330.00" waitingCount="2" stopTime="0.00" timeLoss="347.53" rerouteNo="0" devices="tripinfo_55" vType="DEFAULT_VEHTYPE" speedFactor="0.94" vaporized=""/>
    <tripinfo id="62" depart="1238.00" departLane="NWB2four-arm_LTL_0" departPos="5.10" departSpeed="13.54" departDelay="-0.90" arrival="1351.00" arrivalLane="incoming2EB_1" arrivalPos="304.25" arrivalSpeed="12.29" duration="113.00" routeLength="1431.94" waitingTime="0.00" waitingCount="0" stopTime="0.00" timeLoss="6.49" rerouteNo="0" devices="tripinfo_62" vType="DEFAULT_VEHTYPE" speedFactor="0.98" vaporized=""/>
    <tripinfo id="59" depart="997.00" departLane="NWB2four-arm_LTL_0" departPos="5.10" departSpeed="13.00" departDelay="-0.76" arrival="1352.00" arrivalLane="incoming2EB_0" arrivalPos="304.25" arrivalSpeed="12.61" duration="355.00" routeLength="1431.94" waitingTime="226.00" waitingCount="2" stopTime="0.00" timeLoss="243.26" rerouteNo="0" devices="tripinfo_59" vType="DEFAULT_VEHTYPE" speedFactor="0.94" vaporized=""/>
    <tripinfo id="8" depart="819.00" departLane="EB2incoming_0" departPos="5.10" departSpeed="13.77" departDelay="-0.88" arrival="1383.00" arrivalLane="four-arm2WB_0" arrivalPos="759.55" arrivalSpeed="13.11" duration="564.00" routeLength="1879.21" waitingTime="410.00" waitingCount="2" stopTime="0.00" timeLoss="426.85" rerouteNo="0" devices="tripinfo_8" vType="DEFAULT_VEHTYPE" speedFactor="0.99" vaporized=""/>
    <tripinfo id="5" depart="1283.00" departLane="EB2incoming_0" departPos="5.10" departSpeed="12.36" departDelay="-0.82" arrival="1458.00" arrivalLane="four-arm2WB_0" arrivalPos="759.55" arrivalSpeed="11.86" duration="175.00" routeLength="1879.21" waitingTime="9.00" waitingCount="1" stopTime="0.00" timeLoss="22.44" rerouteNo="0" devices="tripinfo_5" vType="DEFAULT_VEHTYPE" speedFactor="0.89" vaporized=""/>
    <tripinfo id="33" depart="1302.00" departLane="WB2four-arm_LTL_0" departPos="5.10" departSpeed="11.47" departDelay="-0.21" arrival="1512.00" arrivalLane="T2SEB_0" arrivalPos="296.94" arrivalSpeed="10.35" duration="210.00" routeLength="2221.49" waitingTime="0.00" waitingCount="0" stopTime="0.00" timeLoss="13.65" rerouteNo="0" devices="tripinfo_33" vType="DEFAULT_VEHTYPE" speedFactor="0.83" vaporized=""/>
    <tripinfo id="53" depart="1669.00" departLane="NWB2four-arm_LTL_0" departPos="5.10" departSpeed="13.18" departDelay="-0.56" arrival="1758.00" arrivalLane="four-arm2WB_0" arrivalPos="759.55" arrivalSpeed="12.76" duration="89.00" routeLength="1077.79" waitingTime="0.00" waitingCount="0" stopTime="0.00" timeLoss="5.97" rerouteNo="0" devices="tripinfo_53" vType="DEFAULT_VEHTYPE" speedFactor="0.95" vaporized=""/>
    <tripinfo id="12" depart="1372.00" departLane="SEB2T_0" departPos="5.10" departSpeed="12.12" departDelay="-0.68" arrival="1891.00" arrivalLane="four-arm2WB_0" arrivalPos="759.55" arrivalSpeed="11.68" duration="519.00" routeLength="2184.97" waitingTime="315.00" waitingCount="2" stopTime="0.00" timeLoss="337.17" rerouteNo="0" devices="tripinfo_12" vType="DEFAULT_VEHTYPE" speedFactor="0.87" vaporized=""/>
    <tripinfo id="26" depart="1752.00" departLane="WB2four-arm_LTL_1" departPos="5.10" departSpeed="15.72" departDelay="-0.65" arrival="1925.00" arrivalLane="T2SEB_0" arrivalPos="296.94" arrivalSpeed="14.77" duration="173.00" routeLength="2221.49" waitingTime="17.00" waitingCount="1" stopTime="0.00" timeLoss="29.82" rerouteNo="0" devices="tripinfo_26" vType="DEFAULT_VEHTYPE" speedFactor="1.13" vaporized=""/>
    <tripinfo id="42" depart="1762.00" departLane="WB2four-arm_LTL_0" departPos="5.10" departSpeed="12.94" departDelay="-0.81" arrival="1955.00" arrivalLane="four-arm2NWB_0" arrivalPos="313.79" arrivalSpeed="12.80" duration="193.00" routeLength="1087.89" waitingTime="98.00" waitingCount="1" stopTime="0.00" timeLoss="107.76" rerouteNo="0" devices="tripinfo_42" vType="DEFAULT_VEHTYPE" speedFactor="0.93" vaporized=""/>
    <tripinfo id="16" depart="1848.00" departLane="WB2four-arm_LTL_0" departPos="5.10" departSpeed="13.96" departDelay="-0.48" arrival="2057.00" arrivalLane="incoming2EB_0" arrivalPos="304.25" arrivalSpeed="13.79" duration="209.00" routeLength="1879.16" waitingTime="62.00" waitingCount="1" stopTime="0.00" timeLoss="74.17" rerouteNo="0" devices="tripinfo_16" vType="DEFAULT_VEHTYPE" speedFactor="1.01" vaporized=""/>
    <tripinfo id="20" depart="1651.00" departLane="WB2four-arm_LTL_0" departPos="5.10" departSpeed="12.74" departDelay="-0.42" arrival="2060.00" arrivalLane="incoming2EB_0" arrivalPos="304.25" arrivalSpeed="12.36" duration="409.00" routeLength="1879.16" waitingTime="242.00" waitingCount="2" stopTime="0.00" timeLoss="261.38" rerouteNo="0" devices="tripinfo_20" vType="DEFAULT_VEHTYPE" speedFactor="0.92" vaporized=""/>
    <tripinfo id="45" depart="1822.00" departLane="NWB2four-arm_LTL_0" departPos="5.10" departSpeed="16.37" departDelay="-0.07" arrival="2083.00" arrivalLane="four-arm2WB_0" arrivalPos="759.55" arrivalSpeed="15.45" duration="261.00" routeLength="1077.79" waitingTime="186.00" waitingCount="1" stopTime="0.00" timeLoss="194.21" rerouteNo="0" devices="tripinfo_45" vType="DEFAULT_VEHTYPE" speedFactor="1.18" vaporized=""/>
    <tripinfo id="54" depart="1972.00" departLane="NWB2four-arm_LTL_1" departPos="5.10" departSpeed="13.82" departDelay="-0.95" arrival="2095.00" arrivalLane="four-arm2WB_0" arrivalPos="759.55" arrivalSpeed="13.10" duration="123.00" routeLength="1077.79" waitingTime="34.00" waitingCount="1" stopTime="0.00" timeLoss="43.42" rerouteNo="0" devices="tripinfo_54" vType="DEFAULT_VEHTYPE" speedFactor="0.99" vaporized=""/>
    <tripinfo id="2" depart="1847.00" departLane="NEB2incoming_LTL_0" departPos="5.10" departSpeed="16.04" departDelay="-0.70" arrival="2305.00" arrivalLane="four-arm2WB_0" arrivalPos="759.55" arrivalSpeed="14.85" duration="458.00" routeLength="1895.02" waitingTime="322.00" waitingCount="2" stopTime="0.00" timeLoss="339.12" rerouteNo="0" devices="tripinfo_2" vType="DEFAULT_VEHTYPE" speedFactor="1.15" vaporized=""/>
    <tripinfo id="10" depart="2015.00" departLane="SEB2T_0" departPos="5.10" departSpeed="14.16" departDelay="-0.92" arrival="2314.00" arrivalLane="four-arm2WB_0" arrivalPos="759.55" arrivalSpeed="13.98" duration="299.00" routeLength="2184.97" waitingTime="121.00" waitingCount="2" stopTime="0.00" timeLoss="142.98" rerouteNo="0" devices="tripinfo_10" vType="DEFAULT_VEHTYPE" speedFactor="1.02" vaporized=""/>
    <tripinfo id="28" depart="2116.00" departLane="WB2four-arm_LTL_1" departPos="5.10" departSpeed="16.39" departDelay="-0.75" arrival="2351.00" arrivalLane="T2SEB_0" arrivalPos="296.94" arrivalSpeed="15.96" duration="235.00" routeLength="2221.49" waitingTime="85.00" waitingCount="1" stopTime="0.00" timeLoss="97.70" rerouteNo="0" devices="tripinfo_28" vType="DEFAULT_VEHTYPE" speedFactor="1.18" vaporized=""/>
    <tripinfo id="32" depart="2169.00" departLane="WB2four-arm_LTL_0" departPos="5.10" departSpeed="12.51" departDelay="-0.75" arrival="2384.00" arrivalLane="T2SEB_0" arrivalPos="296.94" arrivalSpeed="11.65" duration="215.00" routeLength="2221.49" waitingTime="19.00" waitingCount="1" stopTime="0.00" timeLoss="35.40" rerouteNo="0" devices="tripinfo_32" vType="DEFAULT_VEHTYPE" speedFactor="0.90" vaporized=""/>
    <tripinfo id="23" depart="1943.00" departLane="WB2four-arm_LTL_0" departPos="5.10" departSpeed="16.28" departDelay="-0.63" arrival="2400.00" arrivalLane="incoming2EB_0" arrivalPos="304.25" arrivalSpeed="16.11" duration="457.00" routeLength="1879.16" waitingTime="325.00" waitingCount="2" stopTime="0.00" timeLoss="340.69" rerouteNo="0" devices="tripinfo_23" vType="DEFAULT_VEHTYPE" speedFactor="1.17" vaporized=""/>
    <tripinfo id="43" depart="2104.00" departLane="WB2four-arm_LTL_1" departPos="5.10" departSpeed="13.52" departDelay="-0.54" arrival="2404.00" arrivalLane="four-arm2NWB_0" arrivalPos="313.79" arrivalSpeed="12.37" duration="300.00" routeLength="1087.89" waitingTime="209.00" waitingCount="1" stopTime="0.00" timeLoss="218.67" rerouteNo="0" devices="tripinfo_43" vType="DEFAULT_VEHTYPE" speedFactor="0.97" vaporized=""/>
    <tripinfo id="18" depart="2239.00" departLane="WB2four-arm_LTL_0" departPos="5.10" departSpeed="13.29" departDelay="-0.54" arrival="2404.00" arrivalLane="incoming2EB_0" arrivalPos="304.25" arrivalSpeed="13.13" duration="165.00" routeLength="1879.16" waitingTime="10.00" waitingCount="1" stopTime="0.00" timeLoss="23.14" rerouteNo="0" devices="tripinfo_18" vType="DEFAULT_VEHTYPE" speedFactor="0.96" vaporized=""/>
    <tripinfo id="41" depart="2138.00" departLane="WB2four-arm_LTL_1" departPos="5.10" departSpeed="15.31" departDelay="-0.70" arrival="2405.00" arrivalLane="four-arm2NWB_1" arrivalPos="313.79" arrivalSpeed="14.02" duration="267.00" routeLength="1087.89" waitingTime="185.00" waitingCount="1" stopTime="0.00" timeLoss="194.89" rerouteNo="0" devices="tripinfo_41" vType="DEFAULT_VEHTYPE" speedFactor="1.10" vaporized=""/>
    <tripinfo id="44" depart="2198.00" departLane="WB2four-arm_LTL_1" departPos="5.10" departSpeed="14.31" departDelay="-0.82" arrival="2408.00" arrivalLane="four-arm2NWB_1" arrivalPos="313.79" arrivalSpeed="13.39" duration="210.00" routeLength="1087.89" waitingTime="121.00" waitingCount="1" stopTime="0.00" timeLoss="132.70" rerouteNo="0" devices="tripinfo_44" vType="DEFAULT_VEHTYPE" speedFactor="1.03" vaporized=""/>
    <tripinfo id="34" depart="2279.00" departLane="WB2four-arm_LTL_0" departPos="5.10" departSpeed="14.49" departDelay="-0.74" arrival="2445.00" arrivalLane="T2SEB_0" arrivalPos="296.94" arrivalSpeed="14.13" duration="166.00" routeLength="2221.49" waitingTime="0.00" waitingCount="0" stopTime="0.00" timeLoss="10.64" rerouteNo="0" devices="tripinfo_34" vType="DEFAULT_VEHTYPE" speedFactor="1.04" vaporized=""/>
    <tripinfo id="39" depart="2359.00" departLane="WB2four-arm_LTL_0" departPos="5.10" departSpeed="12.18" departDelay="-0.25" arrival="2456.00" arrivalLane="four-arm2NWB_0" arrivalPos="313.79" arrivalSpeed="11.91" duration="97.00" routeLength="1087.89" waitingTime="0.00" waitingCount="0" stopTime="0.00" timeLoss="6.26" rerouteNo="0" devices="tripinfo_39" vType="DEFAULT_VEHTYPE" speedFactor="0.88" vaporized=""/>
    <tripinfo id="56" depart="2252.00" departLane="NWB2four-arm_LTL_0" departPos="5.10" departSpeed="14.41" departDelay="-0.80" arrival="2717.00" arrivalLane="incoming2EB_0" arrivalPos="304.25" arrivalSpeed="14.15" duration="465.00" routeLength="1412.33" waitingTime="354.00" waitingCount="2" stopTime="0.00" timeLoss="366.58" rerouteNo="0" devices="tripinfo_56" vType="DEFAULT_VEHTYPE" speedFactor="1.04" vaporized=""/>
    <tripinfo id="60" depart="2573.00" departLane="NWB2four-arm_LTL_0" departPos="5.10" departSpeed="14.12" departDelay="-0.19" arrival="2717.00" arrivalLane="incoming2EB_1" arrivalPos="304.25" arrivalSpeed="13.64" duration="144.00" routeLength="1431.94" waitingTime="30.00" waitingCount="1" stopTime="0.00" timeLoss="41.75" rerouteNo="0" devices="tripinfo_60" vType="DEFAULT_VEHTYPE" speedFactor="1.02" vaporized=""/>
    <tripinfo id="61" depart="2341.00" departLane="NWB2four-arm_LTL_0" departPos="5.10" departSpeed="12.51" departDelay="-0.13" arrival="2722.00" arrivalLane="incoming2EB_0" arrivalPos="304.25" arrivalSpeed="11.76" duration="381.00" routeLength="1431.94" waitingTime="247.00" waitingCount="3" stopTime="0.00" timeLoss="265.35" rerouteNo="0" devices="tripinfo_61" vType="DEFAULT_VEHTYPE" speedFactor="0.90" vaporized=""/>
    <tripinfo id="63" depart="2442.00" departLane="NWB2four-arm_LTL_0" departPos="5.10" departSpeed="11.87" departDelay="-0.60" arrival="2724.00" arrivalLane="incoming2EB_1" arrivalPos="304.25" arrivalSpeed="10.61" duration="282.00" routeLength="1431.94" waitingTime="137.00" waitingCount="3" stopTime="0.00" timeLoss="159.81" rerouteNo="0" devices="tripinfo_63" vType="DEFAULT_VEHTYPE" speedFactor="0.85" vaporized=""/>
    <tripinfo id="9" depart="2300.00" departLane="EB2incoming_0" departPos="5.10" departSpeed="15.11" departDelay="-0.46" arrival="2748.00" arrivalLane="four-arm2WB_0" arrivalPos="759.55" arrivalSpeed="14.97" duration="448.00" routeLength="1879.21" waitingTime="305.00" waitingCount="2" stopTime="0.00" timeLoss="323.38" rerouteNo="0" devices="tripinfo_9" vType="DEFAULT_VEHTYPE" speedFactor="1.09" vaporized=""/>
    <tripinfo id="0" depart="2488.00" departLane="NEB2incoming_LTL_0" departPos="5.10" departSpeed="16.24" departDelay="-0.08" arrival="2749.00" arrivalLane="four-arm2WB_1" arrivalPos="759.55" arrivalSpeed="15.15" duration="261.00" routeLength="1895.02" waitingTime="124.00" waitingCount="2" stopTime="0.00" timeLoss="143.52" rerouteNo="0" devices="tripinfo_0" vType="DEFAULT_VEHTYPE" speedFactor="1.17" vaporized=""/>
    <tripinfo id="14" depart="2248.00" departLane="SEB2T_0" departPos="5.10" departSpeed="15.17" departDelay="-0.33" arrival="2750.00" arrivalLane="four-arm2WB_0" arrivalPos="759.55" arrivalSpeed="14.10" duration="502.00" routeLength="2184.97" waitingTime="333.00" waitingCount="3" stopTime="0.00" timeLoss="357.04" rerouteNo="0" devices="tripinfo_14" vType="DEFAULT_VEHTYPE" speedFactor="1.09" vaporized=""/>
    <tripinfo id="27" depart="2313.00" departLane="WB2four-arm_LTL_0" departPos="5.10" departSpeed="13.85" departDelay="-0.26" arrival="2786.00" arrivalLane="T2SEB_0" arrivalPos="296.94" arrivalSpeed="12.77" duration="473.00" routeLength="2212.46" waitingTime="301.00" waitingCount="1" stopTime="0.00" timeLoss="312.86" rerouteNo="0" devices="tripinfo_27" vType="DEFAULT_VEHTYPE" speedFactor="1.00" vaporized=""/>
    <tripinfo id="19" depart="2436.00" departLane="WB2four-arm_LTL_1" departPos="5.10" departSpeed="11.81" departDelay="-0.32" arrival="2794.00" arrivalLane="incoming2EB_0" arrivalPos="304.25" arrivalSpeed="11.46" duration="358.00" routeLength="1879.16" waitingTime="181.00" waitingCount="2" stopTime="0.00" timeLoss="198.49" rerouteNo="0" devices="tripinfo_19" vType="DEFAULT_VEHTYPE" speedFactor="0.85" vaporized=""/>
    <tripinfo id="35" depart="2587.00" departLane="WB2four-arm_LTL_1" departPos="5.10" departSpeed="15.22" departDelay="-0.01" arrival="2822.00" arrivalLane="four-arm2NWB_1" arrivalPos="313.79" arrivalSpeed="14.67" duration="235.00" routeLength="1087.89" waitingTime="154.00" waitingCount="1" stopTime="0.00" timeLoss="162.36" rerouteNo="0" devices="tripinfo_35" vType="DEFAULT_VEHTYPE" speedFactor="1.10" vaporized=""/>
    <tripinfo id="48" depart="2807.00" departLane="NWB2four-arm_LTL_0" departPos="5.10" departSpeed="13.93" departDelay="-0.46" arrival="2961.00" arrivalLane="four-arm2WB_0" arrivalPos="759.55" arrivalSpeed="13.88" duration="154.00" routeLength="1077.79" waitingTime="68.00" waitingCount="1" stopTime="0.00" timeLoss="76.21" rerouteNo="0" devices="tripinfo_48" vType="DEFAULT_VEHTYPE" speedFactor="1.00" vaporized=""/>
    <tripinfo id="36" depart="2896.00" departLane="WB2four-arm_LTL_0" departPos="5.10" departSpeed="12.49" departDelay="-0.69" arrival="3121.00" arrivalLane="four-arm2NWB_0" arrivalPos="313.79" arrivalSpeed="11.90" duration="225.00" routeLength="1087.89" waitingTime="129.00" waitingCount="1" stopTime="0.00" timeLoss="137.00" rerouteNo="0" devices="tripinfo_36" vType="DEFAULT_VEHTYPE" speedFactor="0.90" vaporized=""/>
    <tripinfo id="4" depart="2950.00" departLane="NEB2incoming_LTL_0" departPos="5.10" departSpeed="14.22" departDelay="-0.16" arrival="3393.00" arrivalLane="four-arm2WB_0" arrivalPos="759.55" arrivalSpeed="14.07" duration="443.00" routeLength="1873.98" waitingTime="301.00" waitingCount="1" stopTime="0.00" timeLoss="310.71" rerouteNo="0" devices="tripinfo_4" vType="DEFAULT_VEHTYPE" speedFactor="1.02" vaporized=""/>
    <tripinfo id="64" depart="3225.00" departLane="NWB2four-arm_LTL_0" departPos="5.10" departSpeed="15.55" departDelay="-0.98" arrival="3430.00" arrivalLane="incoming2EB_0" arrivalPos="304.25" arrivalSpeed="14.35" duration="205.00" routeLength="1431.94" waitingTime="96.00" waitingCount="2" stopTime="0.00" timeLoss="112.29" rerouteNo="0" devices="tripinfo_64" vType="DEFAULT_VEHTYPE" speedFactor="1.12" vaporized=""/>
    <tripinfo id="11" depart="2901.00" departLane="SEB2T_0" departPos="5.10" departSpeed="15.87" departDelay="-0.62" arrival="3462.00" arrivalLane="four-arm2WB_0" arrivalPos="759.55" arrivalSpeed="14.64" duration="561.00" routeLength="2184.97" waitingTime="394.00" waitingCount="4" stopTime="0.00" timeLoss="422.13" rerouteNo="0" devices="tripinfo_11" vType="DEFAULT_VEHTYPE" speedFactor="1.14" vaporized=""/>
    <tripinfo id="6" depart="2852.00" departLane="EB2incoming_0" departPos="5.10" departSpeed="13.83" departDelay="-0.53" arrival="3468.00" arrivalLane="four-arm2WB_0" arrivalPos="759.55" arrivalSpeed="13.69" duration="616.00" routeLength="1879.21" waitingTime="460.00" waitingCount="3" stopTime="0.00" timeLoss="479.32" rerouteNo="0" devices="tripinfo_6" vType="DEFAULT_VEHTYPE" speedFactor="1.00" vaporized=""/>
    <tripinfo id="29" depart="3001.00" departLane="WB2four-arm_LTL_0" departPos="5.10" departSpeed="13.47" departDelay="-0.37" arrival="3478.00" arrivalLane="T2SEB_0" arrivalPos="296.94" arrivalSpeed="12.92" duration="477.00" routeLength="2212.46" waitingTime="301.00" waitingCount="1" stopTime="0.00" timeLoss="312.53" rerouteNo="0" devices="tripinfo_29" vType="DEFAULT_VEHTYPE" speedFactor="0.97" vaporized=""/>
    <tripinfo id="21" depart="3181.00" departLane="WB2four-arm_LTL_1" departPos="5.10" departSpeed="15.04" departDelay="-0.59" arrival="3487.00" arrivalLane="incoming2EB_0" arrivalPos="304.25" arrivalSpeed="14.93" duration="306.00" routeLength="1879.16" waitingTime="165.00" waitingCount="2" stopTime="0.00" timeLoss="180.80" rerouteNo="0" devices="tripinfo_21" vType="DEFAULT_VEHTYPE" speedFactor="1.08" vaporized=""/>
    <tripinfo id="30" depart="3363.00" departLane="WB2four-arm_LTL_1" departPos="5.10" departSpeed="14.11" departDelay="-0.45" arrival="3532.00" arrivalLane="T2SEB_0" arrivalPos="296.94" arrivalSpeed="14.03" duration="169.00" routeLength="2221.49" waitingTime="0.00" waitingCount="0" stopTime="0.00" timeLoss="10.03" rerouteNo="0" devices="tripinfo_30" vType="DEFAULT_VEHTYPE" speedFactor="1.02" vaporized=""/>
    <tripinfo id="50" depart="3425.00" departLane="NWB2four-arm_LTL_0" departPos="5.10" departSpeed="13.71" departDelay="-0.09" arrival="3678.00" arrivalLane="four-arm2WB_0" arrivalPos="759.55" arrivalSpeed="12.45" duration="253.00" routeLength="1077.79" waitingTime="165.00" waitingCount="1" stopTime="0.00" timeLoss="173.37" rerouteNo="0" devices="tripinfo_50" vType="DEFAULT_VEHTYPE" speedFactor="0.99" vaporized=""/>
    <tripinfo id="49" depart="3573.00" departLane="NWB2four-arm_LTL_1" departPos="5.10" departSpeed="13.02" departDelay="-0.33" arrival="3684.00" arrivalLane="four-arm2WB_0" arrivalPos="759.55" arrivalSpeed="11.92" duration="111.00" routeLength="1077.79" waitingTime="17.00" waitingCount="1" stopTime="0.00" timeLoss="27.43" rerouteNo="0" devices="tripinfo_49" vType="DEFAULT_VEHTYPE" speedFactor="0.94" vaporized=""/>
</tripinfos>
