<?xml version="1.0" encoding="UTF-8"?>

<!-- generated on 11/25/19 21:13:48 by Eclipse SUMO GUI Version 1.3.1
<configuration xmlns:xsi="http://www.w3.org/2001/XMLSchema-instance" xsi:noNamespaceSchemaLocation="http://sumo.dlr.de/xsd/sumoConfiguration.xsd">

    <input>
        <net-file value="simpleNetwork.net.xml"/>
        <route-files value="od_route_file.odtrips.rou.xml"/>
    </input>

    <output>
        <tripinfo-output value="tripinfo.xml"/>
    </output>

    <time>
        <begin value="0"/>
        <end value="2000"/>
    </time>

    <traci_server>
        <remote-port value="64960"/>
    </traci_server>

</configuration>
-->

<tripinfos xmlns:xsi="http://www.w3.org/2001/XMLSchema-instance" xsi:noNamespaceSchemaLocation="http://sumo.dlr.de/xsd/tripinfo_file.xsd">
    <tripinfo id="57" depart="27.00" departLane="NWB2four-arm_LTL_0" departPos="5.10" departSpeed="14.72" departDelay="-0.48" arrival="176.00" arrivalLane="incoming2EB_0" arrivalPos="304.25" arrivalSpeed="14.04" duration="149.00" routeLength="1431.94" waitingTime="41.00" waitingCount="1" stopTime="0.00" timeLoss="51.01" rerouteNo="0" devices="tripinfo_57" vType="DEFAULT_VEHTYPE" speedFactor="1.06" vaporized=""/>
    <tripinfo id="17" depart="163.00" departLane="WB2four-arm_LTL_0" departPos="5.10" departSpeed="13.03" departDelay="-0.02" arrival="414.00" arrivalLane="incoming2EB_0" arrivalPos="304.25" arrivalSpeed="12.96" duration="251.00" routeLength="1879.16" waitingTime="91.00" waitingCount="1" stopTime="0.00" timeLoss="106.76" rerouteNo="0" devices="tripinfo_17" vType="DEFAULT_VEHTYPE" speedFactor="0.94" vaporized=""/>
    <tripinfo id="46" depart="353.00" departLane="NWB2four-arm_LTL_0" departPos="5.10" departSpeed="14.03" departDelay="-0.09" arrival="436.00" arrivalLane="four-arm2WB_0" arrivalPos="759.55" arrivalSpeed="12.76" duration="83.00" routeLength="1077.79" waitingTime="0.00" waitingCount="0" stopTime="0.00" timeLoss="5.19" rerouteNo="0" devices="tripinfo_46" vType="DEFAULT_VEHTYPE" speedFactor="1.01" vaporized=""/>
    <tripinfo id="47" depart="363.00" departLane="NWB2four-arm_LTL_1" departPos="5.10" departSpeed="15.04" departDelay="-0.29" arrival="442.00" arrivalLane="four-arm2WB_0" arrivalPos="759.55" arrivalSpeed="14.74" duration="79.00" routeLength="1077.79" waitingTime="0.00" waitingCount="0" stopTime="0.00" timeLoss="5.81" rerouteNo="0" devices="tripinfo_47" vType="DEFAULT_VEHTYPE" speedFactor="1.08" vaporized=""/>
    <tripinfo id="31" depart="423.00" departLane="WB2four-arm_LTL_1" departPos="5.10" departSpeed="14.53" departDelay="-0.68" arrival="605.00" arrivalLane="T2SEB_0" arrivalPos="296.94" arrivalSpeed="13.78" duration="182.00" routeLength="2221.49" waitingTime="16.00" waitingCount="1" stopTime="0.00" timeLoss="27.82" rerouteNo="0" devices="tripinfo_31" vType="DEFAULT_VEHTYPE" speedFactor="1.05" vaporized=""/>
    <tripinfo id="24" depart="436.00" departLane="WB2four-arm_LTL_0" departPos="5.10" departSpeed="12.31" departDelay="-0.43" arrival="646.00" arrivalLane="incoming2EB_0" arrivalPos="304.25" arrivalSpeed="12.28" duration="210.00" routeLength="1879.16" waitingTime="42.00" waitingCount="2" stopTime="0.00" timeLoss="56.38" rerouteNo="0" devices="tripinfo_24" vType="DEFAULT_VEHTYPE" speedFactor="0.89" vaporized=""/>
    <tripinfo id="1" depart="476.00" departLane="NEB2incoming_LTL_0" departPos="5.10" departSpeed="13.03" departDelay="-0.94" arrival="662.00" arrivalLane="four-arm2WB_0" arrivalPos="759.55" arrivalSpeed="12.68" duration="186.00" routeLength="1895.02" waitingTime="21.00" waitingCount="2" stopTime="0.00" timeLoss="39.19" rerouteNo="0" devices="tripinfo_1" vType="DEFAULT_VEHTYPE" speedFactor="0.94" vaporized=""/>
    <tripinfo id="7" depart="401.00" departLane="EB2incoming_0" departPos="5.10" departSpeed="14.31" departDelay="-0.49" arrival="664.00" arrivalLane="four-arm2WB_0" arrivalPos="759.55" arrivalSpeed="14.17" duration="263.00" routeLength="1879.21" waitingTime="120.00" waitingCount="1" stopTime="0.00" timeLoss="131.23" rerouteNo="0" devices="tripinfo_7" vType="DEFAULT_VEHTYPE" speedFactor="1.03" vaporized=""/>
    <tripinfo id="40" depart="410.00" departLane="WB2four-arm_LTL_0" departPos="5.10" departSpeed="11.54" departDelay="-0.68" arrival="812.00" arrivalLane="four-arm2NWB_0" arrivalPos="313.79" arrivalSpeed="10.24" duration="402.00" routeLength="1068.24" waitingTime="301.00" waitingCount="1" stopTime="0.00" timeLoss="309.62" rerouteNo="0" devices="tripinfo_40" vType="DEFAULT_VEHTYPE" speedFactor="0.83" vaporized=""/>
    <tripinfo id="13" depart="666.00" departLane="SEB2T_0" departPos="5.10" departSpeed="15.15" departDelay="-0.67" arrival="873.00" arrivalLane="four-arm2WB_0" arrivalPos="759.55" arrivalSpeed="14.45" duration="207.00" routeLength="2184.97" waitingTime="41.00" waitingCount="2" stopTime="0.00" timeLoss="61.02" rerouteNo="0" devices="tripinfo_13" vType="DEFAULT_VEHTYPE" speedFactor="1.09" vaporized=""/>
    <tripinfo id="15" depart="724.00" departLane="WB2four-arm_LTL_0" departPos="5.10" departSpeed="14.26" departDelay="-0.95" arrival="912.00" arrivalLane="incoming2EB_0" arrivalPos="304.25" arrivalSpeed="13.32" duration="188.00" routeLength="1879.16" waitingTime="36.00" waitingCount="2" stopTime="0.00" timeLoss="56.16" rerouteNo="0" devices="tripinfo_15" vType="DEFAULT_VEHTYPE" speedFactor="1.03" vaporized=""/>
    <tripinfo id="25" depart="785.00" departLane="WB2four-arm_LTL_0" departPos="5.10" departSpeed="15.60" departDelay="-0.27" arrival="939.00" arrivalLane="T2SEB_0" arrivalPos="296.94" arrivalSpeed="15.52" duration="154.00" routeLength="2221.49" waitingTime="0.00" waitingCount="0" stopTime="0.00" timeLoss="9.56" rerouteNo="0" devices="tripinfo_25" vType="DEFAULT_VEHTYPE" speedFactor="1.12" vaporized=""/>
    <tripinfo id="3" depart="754.00" departLane="NEB2incoming_LTL_0" departPos="5.10" departSpeed="14.54" departDelay="-0.69" arrival="965.00" arrivalLane="four-arm2WB_0" arrivalPos="759.55" arrivalSpeed="14.38" duration="211.00" routeLength="1895.02" waitingTime="64.00" waitingCount="2" stopTime="0.00" timeLoss="79.37" rerouteNo="0" devices="tripinfo_3" vType="DEFAULT_VEHTYPE" speedFactor="1.05" vaporized=""/>
    <tripinfo id="8" depart="819.00" departLane="EB2incoming_0" departPos="5.10" departSpeed="13.77" departDelay="-0.88" arrival="988.00" arrivalLane="four-arm2WB_0" arrivalPos="759.55" arrivalSpeed="13.23" duration="169.00" routeLength="1879.21" waitingTime="13.00" waitingCount="2" stopTime="0.00" timeLoss="31.73" rerouteNo="0" devices="tripinfo_8" vType="DEFAULT_VEHTYPE" speedFactor="0.99" vaporized=""/>
    <tripinfo id="22" depart="842.00" departLane="WB2four-arm_LTL_0" departPos="5.10" departSpeed="12.20" departDelay="-0.52" arrival="1016.00" arrivalLane="incoming2EB_0" arrivalPos="304.25" arrivalSpeed="12.19" duration="174.00" routeLength="1879.16" waitingTime="6.00" waitingCount="1" stopTime="0.00" timeLoss="19.71" rerouteNo="0" devices="tripinfo_22" vType="DEFAULT_VEHTYPE" speedFactor="0.88" vaporized=""/>
    <tripinfo id="55" depart="891.00" departLane="NWB2four-arm_LTL_0" departPos="5.10" departSpeed="13.08" departDelay="-0.90" arrival="1024.00" arrivalLane="incoming2EB_0" arrivalPos="304.25" arrivalSpeed="12.88" duration="133.00" routeLength="1431.94" waitingTime="13.00" waitingCount="1" stopTime="0.00" timeLoss="22.81" rerouteNo="0" devices="tripinfo_55" vType="DEFAULT_VEHTYPE" speedFactor="0.94" vaporized=""/>
    <tripinfo id="51" depart="1034.00" departLane="NWB2four-arm_LTL_0" departPos="5.10" departSpeed="16.09" departDelay="-0.54" arrival="1114.00" arrivalLane="four-arm2WB_0" arrivalPos="759.55" arrivalSpeed="15.28" duration="80.00" routeLength="1077.79" waitingTime="5.00" waitingCount="1" stopTime="0.00" timeLoss="12.19" rerouteNo="0" devices="tripinfo_51" vType="DEFAULT_VEHTYPE" speedFactor="1.16" vaporized=""/>
    <tripinfo id="37" depart="557.00" departLane="WB2four-arm_LTL_0" departPos="5.10" departSpeed="11.90" departDelay="-0.09" arrival="1117.00" arrivalLane="four-arm2NWB_0" arrivalPos="313.79" arrivalSpeed="11.30" duration="560.00" routeLength="1068.24" waitingTime="459.00" waitingCount="2" stopTime="0.00" timeLoss="470.25" rerouteNo="0" devices="tripinfo_37" vType="DEFAULT_VEHTYPE" speedFactor="0.86" vaporized=""/>
    <tripinfo id="59" depart="997.00" departLane="NWB2four-arm_LTL_0" departPos="5.10" departSpeed="13.00" departDelay="-0.76" arrival="1134.00" arrivalLane="incoming2EB_0" arrivalPos="304.25" arrivalSpeed="12.78" duration="137.00" routeLength="1431.94" waitingTime="16.00" waitingCount="1" stopTime="0.00" timeLoss="25.83" rerouteNo="0" devices="tripinfo_59" vType="DEFAULT_VEHTYPE" speedFactor="0.94" vaporized=""/>
    <tripinfo id="52" depart="1130.00" departLane="NWB2four-arm_LTL_0" departPos="5.10" departSpeed="14.14" departDelay="-0.77" arrival="1221.00" arrivalLane="four-arm2WB_0" arrivalPos="759.55" arrivalSpeed="14.03" duration="91.00" routeLength="1077.79" waitingTime="5.00" waitingCount="1" stopTime="0.00" timeLoss="13.34" rerouteNo="0" devices="tripinfo_52" vType="DEFAULT_VEHTYPE" speedFactor="1.02" vaporized=""/>
    <tripinfo id="58" depart="1184.00" departLane="NWB2four-arm_LTL_0" departPos="5.10" departSpeed="14.03" departDelay="-0.71" arrival="1358.00" arrivalLane="incoming2EB_0" arrivalPos="304.25" arrivalSpeed="13.86" duration="174.00" routeLength="1431.94" waitingTime="56.00" waitingCount="2" stopTime="0.00" timeLoss="71.24" rerouteNo="0" devices="tripinfo_58" vType="DEFAULT_VEHTYPE" speedFactor="1.01" vaporized=""/>
    <tripinfo id="62" depart="1238.00" departLane="NWB2four-arm_LTL_0" departPos="5.10" departSpeed="13.54" departDelay="-0.90" arrival="1358.00" arrivalLane="incoming2EB_1" arrivalPos="304.25" arrivalSpeed="13.53" duration="120.00" routeLength="1431.94" waitingTime="0.00" waitingCount="0" stopTime="0.00" timeLoss="12.70" rerouteNo="0" devices="tripinfo_62" vType="DEFAULT_VEHTYPE" speedFactor="0.98" vaporized=""/>
    <tripinfo id="38" depart="833.00" departLane="WB2four-arm_LTL_0" departPos="5.10" departSpeed="12.87" departDelay="-0.34" arrival="1420.00" arrivalLane="four-arm2NWB_0" arrivalPos="313.79" arrivalSpeed="12.29" duration="587.00" routeLength="1068.24" waitingTime="493.00" waitingCount="2" stopTime="0.00" timeLoss="503.55" rerouteNo="0" devices="tripinfo_38" vType="DEFAULT_VEHTYPE" speedFactor="0.93" vaporized=""/>
    <tripinfo id="5" depart="1283.00" departLane="EB2incoming_0" departPos="5.10" departSpeed="12.36" departDelay="-0.82" arrival="1455.00" arrivalLane="four-arm2WB_0" arrivalPos="759.55" arrivalSpeed="11.58" duration="172.00" routeLength="1879.21" waitingTime="1.00" waitingCount="1" stopTime="0.00" timeLoss="19.31" rerouteNo="0" devices="tripinfo_5" vType="DEFAULT_VEHTYPE" speedFactor="0.89" vaporized=""/>
    <tripinfo id="33" depart="1302.00" departLane="WB2four-arm_LTL_0" departPos="5.10" departSpeed="11.47" departDelay="-0.21" arrival="1525.00" arrivalLane="T2SEB_0" arrivalPos="296.94" arrivalSpeed="10.79" duration="223.00" routeLength="2221.49" waitingTime="11.00" waitingCount="1" stopTime="0.00" timeLoss="27.29" rerouteNo="0" devices="tripinfo_33" vType="DEFAULT_VEHTYPE" speedFactor="0.83" vaporized=""/>
    <tripinfo id="12" depart="1372.00" departLane="SEB2T_0" departPos="5.10" departSpeed="12.12" departDelay="-0.68" arrival="1587.00" arrivalLane="four-arm2WB_0" arrivalPos="759.55" arrivalSpeed="10.84" duration="215.00" routeLength="2184.97" waitingTime="10.00" waitingCount="2" stopTime="0.00" timeLoss="32.87" rerouteNo="0" devices="tripinfo_12" vType="DEFAULT_VEHTYPE" speedFactor="0.87" vaporized=""/>
    <tripinfo id="53" depart="1669.00" departLane="NWB2four-arm_LTL_0" departPos="5.10" departSpeed="13.18" departDelay="-0.56" arrival="1759.00" arrivalLane="four-arm2WB_0" arrivalPos="759.55" arrivalSpeed="11.96" duration="90.00" routeLength="1077.79" waitingTime="0.00" waitingCount="0" stopTime="0.00" timeLoss="7.03" rerouteNo="0" devices="tripinfo_53" vType="DEFAULT_VEHTYPE" speedFactor="0.95" vaporized=""/>
    <tripinfo id="20" depart="1651.00" departLane="WB2four-arm_LTL_0" departPos="5.10" departSpeed="12.74" departDelay="-0.42" arrival="1840.00" arrivalLane="incoming2EB_0" arrivalPos="304.25" arrivalSpeed="12.19" duration="189.00" routeLength="1879.16" waitingTime="25.00" waitingCount="1" stopTime="0.00" timeLoss="40.59" rerouteNo="0" devices="tripinfo_20" vType="DEFAULT_VEHTYPE" speedFactor="0.92" vaporized=""/>
    <tripinfo id="45" depart="1822.00" departLane="NWB2four-arm_LTL_0" departPos="5.10" departSpeed="16.37" departDelay="-0.07" arrival="1903.00" arrivalLane="four-arm2WB_0" arrivalPos="759.55" arrivalSpeed="15.61" duration="81.00" routeLength="1077.79" waitingTime="7.00" waitingCount="1" stopTime="0.00" timeLoss="14.34" rerouteNo="0" devices="tripinfo_45" vType="DEFAULT_VEHTYPE" speedFactor="1.18" vaporized=""/>
    <tripinfo id="26" depart="1752.00" departLane="WB2four-arm_LTL_0" departPos="5.10" departSpeed="15.72" departDelay="-0.65" arrival="1914.00" arrivalLane="T2SEB_0" arrivalPos="296.94" arrivalSpeed="14.45" duration="162.00" routeLength="2221.49" waitingTime="1.00" waitingCount="1" stopTime="0.00" timeLoss="19.34" rerouteNo="0" devices="tripinfo_26" vType="DEFAULT_VEHTYPE" speedFactor="1.13" vaporized=""/>
    <tripinfo id="54" depart="1972.00" departLane="NWB2four-arm_LTL_0" departPos="5.10" departSpeed="13.82" departDelay="-0.95" arrival="2082.00" arrivalLane="four-arm2WB_0" arrivalPos="759.55" arrivalSpeed="13.63" duration="110.00" routeLength="1077.79" waitingTime="22.00" waitingCount="1" stopTime="0.00" timeLoss="31.13" rerouteNo="0" devices="tripinfo_54" vType="DEFAULT_VEHTYPE" speedFactor="0.99" vaporized=""/>
    <tripinfo id="2" depart="1847.00" departLane="NEB2incoming_LTL_0" departPos="5.10" departSpeed="16.04" departDelay="-0.70" arrival="2095.00" arrivalLane="four-arm2WB_0" arrivalPos="759.55" arrivalSpeed="15.72" duration="248.00" routeLength="1895.02" waitingTime="114.00" waitingCount="2" stopTime="0.00" timeLoss="128.85" rerouteNo="0" devices="tripinfo_2" vType="DEFAULT_VEHTYPE" speedFactor="1.15" vaporized=""/>
    <tripinfo id="23" depart="1943.00" departLane="WB2four-arm_LTL_0" departPos="5.10" departSpeed="16.28" departDelay="-0.63" arrival="2130.00" arrivalLane="incoming2EB_0" arrivalPos="304.25" arrivalSpeed="15.22" duration="187.00" routeLength="1879.16" waitingTime="53.00" waitingCount="2" stopTime="0.00" timeLoss="70.93" rerouteNo="0" devices="tripinfo_23" vType="DEFAULT_VEHTYPE" speedFactor="1.17" vaporized=""/>
    <tripinfo id="16" depart="1848.00" departLane="WB2four-arm_LTL_0" departPos="5.10" departSpeed="13.96" departDelay="-0.48" arrival="2131.00" arrivalLane="incoming2EB_1" arrivalPos="304.25" arrivalSpeed="13.60" duration="283.00" routeLength="1879.16" waitingTime="132.00" waitingCount="1" stopTime="0.00" timeLoss="147.79" rerouteNo="0" devices="tripinfo_16" vType="DEFAULT_VEHTYPE" speedFactor="1.01" vaporized=""/>
    <tripinfo id="42" depart="1762.00" departLane="WB2four-arm_LTL_1" departPos="5.10" departSpeed="12.94" departDelay="-0.81" arrival="2154.00" arrivalLane="four-arm2NWB_0" arrivalPos="313.79" arrivalSpeed="11.87" duration="392.00" routeLength="1068.24" waitingTime="301.00" waitingCount="1" stopTime="0.00" timeLoss="309.16" rerouteNo="0" devices="tripinfo_42" vType="DEFAULT_VEHTYPE" speedFactor="0.93" vaporized=""/>
    <tripinfo id="10" depart="2015.00" departLane="SEB2T_0" departPos="5.10" departSpeed="14.16" departDelay="-0.92" arrival="2197.00" arrivalLane="four-arm2WB_0" arrivalPos="759.55" arrivalSpeed="14.16" duration="182.00" routeLength="2184.97" waitingTime="8.00" waitingCount="2" stopTime="0.00" timeLoss="25.76" rerouteNo="0" devices="tripinfo_10" vType="DEFAULT_VEHTYPE" speedFactor="1.02" vaporized=""/>
    <tripinfo id="28" depart="2116.00" departLane="WB2four-arm_LTL_0" departPos="5.10" departSpeed="16.39" departDelay="-0.75" arrival="2269.00" arrivalLane="T2SEB_0" arrivalPos="296.94" arrivalSpeed="15.98" duration="153.00" routeLength="2221.49" waitingTime="0.00" waitingCount="0" stopTime="0.00" timeLoss="15.88" rerouteNo="0" devices="tripinfo_28" vType="DEFAULT_VEHTYPE" speedFactor="1.18" vaporized=""/>
    <tripinfo id="32" depart="2169.00" departLane="WB2four-arm_LTL_0" departPos="5.10" departSpeed="12.51" departDelay="-0.75" arrival="2374.00" arrivalLane="T2SEB_0" arrivalPos="296.94" arrivalSpeed="11.30" duration="205.00" routeLength="2221.49" waitingTime="10.00" waitingCount="1" stopTime="0.00" timeLoss="25.78" rerouteNo="0" devices="tripinfo_32" vType="DEFAULT_VEHTYPE" speedFactor="0.90" vaporized=""/>
    <tripinfo id="56" depart="2252.00" departLane="NWB2four-arm_LTL_0" departPos="5.10" departSpeed="14.41" departDelay="-0.80" arrival="2382.00" arrivalLane="incoming2EB_0" arrivalPos="304.25" arrivalSpeed="14.11" duration="130.00" routeLength="1431.94" waitingTime="18.00" waitingCount="1" stopTime="0.00" timeLoss="29.70" rerouteNo="0" devices="tripinfo_56" vType="DEFAULT_VEHTYPE" speedFactor="1.04" vaporized=""/>
    <tripinfo id="18" depart="2239.00" departLane="WB2four-arm_LTL_0" departPos="5.10" departSpeed="13.29" departDelay="-0.54" arrival="2419.00" arrivalLane="incoming2EB_0" arrivalPos="304.25" arrivalSpeed="12.03" duration="180.00" routeLength="1879.16" waitingTime="26.00" waitingCount="1" stopTime="0.00" timeLoss="38.27" rerouteNo="0" devices="tripinfo_18" vType="DEFAULT_VEHTYPE" speedFactor="0.96" vaporized=""/>
    <tripinfo id="14" depart="2248.00" departLane="SEB2T_0" departPos="5.10" departSpeed="15.17" departDelay="-0.33" arrival="2468.00" arrivalLane="four-arm2WB_0" arrivalPos="759.55" arrivalSpeed="14.51" duration="220.00" routeLength="2184.97" waitingTime="54.00" waitingCount="1" stopTime="0.00" timeLoss="73.72" rerouteNo="0" devices="tripinfo_14" vType="DEFAULT_VEHTYPE" speedFactor="1.09" vaporized=""/>
    <tripinfo id="9" depart="2300.00" departLane="EB2incoming_0" departPos="5.10" departSpeed="15.11" departDelay="-0.46" arrival="2470.00" arrivalLane="four-arm2WB_0" arrivalPos="759.55" arrivalSpeed="14.75" duration="170.00" routeLength="1879.21" waitingTime="31.00" waitingCount="1" stopTime="0.00" timeLoss="44.87" rerouteNo="0" devices="tripinfo_9" vType="DEFAULT_VEHTYPE" speedFactor="1.09" vaporized=""/>
    <tripinfo id="43" depart="2104.00" departLane="WB2four-arm_LTL_0" departPos="5.10" departSpeed="13.52" departDelay="-0.54" arrival="2490.00" arrivalLane="four-arm2NWB_0" arrivalPos="313.79" arrivalSpeed="12.32" duration="386.00" routeLength="1068.24" waitingTime="301.00" waitingCount="1" stopTime="0.00" timeLoss="307.36" rerouteNo="0" devices="tripinfo_43" vType="DEFAULT_VEHTYPE" speedFactor="0.97" vaporized=""/>
    <tripinfo id="61" depart="2341.00" departLane="NWB2four-arm_LTL_0" departPos="5.10" departSpeed="12.51" departDelay="-0.13" arrival="2515.00" arrivalLane="incoming2EB_0" arrivalPos="304.25" arrivalSpeed="12.47" duration="174.00" routeLength="1431.94" waitingTime="42.00" waitingCount="2" stopTime="0.00" timeLoss="58.52" rerouteNo="0" devices="tripinfo_61" vType="DEFAULT_VEHTYPE" speedFactor="0.90" vaporized=""/>
    <tripinfo id="34" depart="2279.00" departLane="WB2four-arm_LTL_0" departPos="5.10" departSpeed="14.49" departDelay="-0.74" arrival="2525.00" arrivalLane="T2SEB_0" arrivalPos="296.94" arrivalSpeed="14.06" duration="246.00" routeLength="2221.49" waitingTime="73.00" waitingCount="1" stopTime="0.00" timeLoss="91.11" rerouteNo="0" devices="tripinfo_34" vType="DEFAULT_VEHTYPE" speedFactor="1.04" vaporized=""/>
    <tripinfo id="27" depart="2313.00" departLane="WB2four-arm_LTL_0" departPos="5.10" departSpeed="13.85" departDelay="-0.26" arrival="2530.00" arrivalLane="T2SEB_0" arrivalPos="296.94" arrivalSpeed="13.55" duration="217.00" routeLength="2221.49" waitingTime="39.00" waitingCount="1" stopTime="0.00" timeLoss="54.35" rerouteNo="0" devices="tripinfo_27" vType="DEFAULT_VEHTYPE" speedFactor="1.00" vaporized=""/>
    <tripinfo id="63" depart="2442.00" departLane="NWB2four-arm_LTL_0" departPos="5.10" departSpeed="11.87" departDelay="-0.60" arrival="2573.00" arrivalLane="incoming2EB_0" arrivalPos="304.25" arrivalSpeed="11.85" duration="131.00" routeLength="1431.94" waitingTime="0.00" waitingCount="0" stopTime="0.00" timeLoss="8.70" rerouteNo="0" devices="tripinfo_63" vType="DEFAULT_VEHTYPE" speedFactor="0.85" vaporized=""/>
    <tripinfo id="0" depart="2488.00" departLane="NEB2incoming_LTL_0" departPos="5.10" departSpeed="16.24" departDelay="-0.08" arrival="2619.00" arrivalLane="four-arm2WB_0" arrivalPos="759.55" arrivalSpeed="15.67" duration="131.00" routeLength="1895.02" waitingTime="0.00" waitingCount="0" stopTime="0.00" timeLoss="13.38" rerouteNo="0" devices="tripinfo_0" vType="DEFAULT_VEHTYPE" speedFactor="1.17" vaporized=""/>
    <tripinfo id="19" depart="2436.00" departLane="WB2four-arm_LTL_0" departPos="5.10" departSpeed="11.81" departDelay="-0.32" arrival="2687.00" arrivalLane="incoming2EB_0" arrivalPos="304.25" arrivalSpeed="11.35" duration="251.00" routeLength="1879.16" waitingTime="75.00" waitingCount="1" stopTime="0.00" timeLoss="91.00" rerouteNo="0" devices="tripinfo_19" vType="DEFAULT_VEHTYPE" speedFactor="0.85" vaporized=""/>
    <tripinfo id="60" depart="2573.00" departLane="NWB2four-arm_LTL_0" departPos="5.10" departSpeed="14.12" departDelay="-0.19" arrival="2718.00" arrivalLane="incoming2EB_0" arrivalPos="304.25" arrivalSpeed="13.50" duration="145.00" routeLength="1431.94" waitingTime="26.00" waitingCount="2" stopTime="0.00" timeLoss="42.98" rerouteNo="0" devices="tripinfo_60" vType="DEFAULT_VEHTYPE" speedFactor="1.02" vaporized=""/>
    <tripinfo id="41" depart="2138.00" departLane="WB2four-arm_LTL_1" departPos="5.10" departSpeed="15.31" departDelay="-0.70" arrival="2793.00" arrivalLane="four-arm2NWB_0" arrivalPos="313.79" arrivalSpeed="14.59" duration="655.00" routeLength="1068.24" waitingTime="576.00" waitingCount="2" stopTime="0.00" timeLoss="585.62" rerouteNo="0" devices="tripinfo_41" vType="DEFAULT_VEHTYPE" speedFactor="1.10" vaporized=""/>
    <tripinfo id="48" depart="2807.00" departLane="NWB2four-arm_LTL_0" departPos="5.10" departSpeed="13.93" departDelay="-0.46" arrival="2937.00" arrivalLane="four-arm2WB_0" arrivalPos="759.55" arrivalSpeed="12.71" duration="130.00" routeLength="1077.79" waitingTime="44.00" waitingCount="1" stopTime="0.00" timeLoss="51.39" rerouteNo="0" devices="tripinfo_48" vType="DEFAULT_VEHTYPE" speedFactor="1.00" vaporized=""/>
    <tripinfo id="6" depart="2852.00" departLane="EB2incoming_0" departPos="5.10" departSpeed="13.83" departDelay="-0.53" arrival="3006.00" arrivalLane="four-arm2WB_0" arrivalPos="759.55" arrivalSpeed="12.78" duration="154.00" routeLength="1879.21" waitingTime="3.00" waitingCount="1" stopTime="0.00" timeLoss="18.11" rerouteNo="0" devices="tripinfo_6" vType="DEFAULT_VEHTYPE" speedFactor="1.00" vaporized=""/>
    <tripinfo id="44" depart="2198.00" departLane="WB2four-arm_LTL_0" departPos="5.10" departSpeed="14.31" departDelay="-0.82" arrival="3100.00" arrivalLane="four-arm2NWB_0" arrivalPos="313.79" arrivalSpeed="13.45" duration="902.00" routeLength="1068.24" waitingTime="813.00" waitingCount="3" stopTime="0.00" timeLoss="827.23" rerouteNo="0" devices="tripinfo_44" vType="DEFAULT_VEHTYPE" speedFactor="1.03" vaporized=""/>
    <tripinfo id="11" depart="2901.00" departLane="SEB2T_0" departPos="5.10" departSpeed="15.87" departDelay="-0.62" arrival="3105.00" arrivalLane="four-arm2WB_0" arrivalPos="759.55" arrivalSpeed="15.49" duration="204.00" routeLength="2184.97" waitingTime="47.00" waitingCount="2" stopTime="0.00" timeLoss="64.49" rerouteNo="0" devices="tripinfo_11" vType="DEFAULT_VEHTYPE" speedFactor="1.14" vaporized=""/>
    <tripinfo id="4" depart="2950.00" departLane="NEB2incoming_LTL_0" departPos="5.10" departSpeed="14.22" departDelay="-0.16" arrival="3114.00" arrivalLane="four-arm2WB_0" arrivalPos="759.55" arrivalSpeed="13.67" duration="164.00" routeLength="1895.02" waitingTime="14.00" waitingCount="1" stopTime="0.00" timeLoss="29.33" rerouteNo="0" devices="tripinfo_4" vType="DEFAULT_VEHTYPE" speedFactor="1.02" vaporized=""/>
    <tripinfo id="29" depart="3001.00" departLane="WB2four-arm_LTL_0" departPos="5.10" departSpeed="13.47" departDelay="-0.37" arrival="3191.00" arrivalLane="T2SEB_0" arrivalPos="296.94" arrivalSpeed="13.25" duration="190.00" routeLength="2221.49" waitingTime="7.00" waitingCount="1" stopTime="0.00" timeLoss="23.31" rerouteNo="0" devices="tripinfo_29" vType="DEFAULT_VEHTYPE" speedFactor="0.97" vaporized=""/>
    <tripinfo id="21" depart="3181.00" departLane="WB2four-arm_LTL_0" departPos="5.10" departSpeed="15.04" departDelay="-0.59" arrival="3366.00" arrivalLane="incoming2EB_0" arrivalPos="304.25" arrivalSpeed="14.22" duration="185.00" routeLength="1879.16" waitingTime="41.00" waitingCount="2" stopTime="0.00" timeLoss="59.97" rerouteNo="0" devices="tripinfo_21" vType="DEFAULT_VEHTYPE" speedFactor="1.08" vaporized=""/>
    <tripinfo id="64" depart="3225.00" departLane="NWB2four-arm_LTL_0" departPos="5.10" departSpeed="15.55" departDelay="-0.98" arrival="3366.00" arrivalLane="incoming2EB_1" arrivalPos="304.25" arrivalSpeed="14.85" duration="141.00" routeLength="1431.94" waitingTime="32.00" waitingCount="2" stopTime="0.00" timeLoss="47.51" rerouteNo="0" devices="tripinfo_64" vType="DEFAULT_VEHTYPE" speedFactor="1.12" vaporized=""/>
    <tripinfo id="39" depart="2359.00" departLane="WB2four-arm_LTL_0" departPos="5.10" departSpeed="12.18" departDelay="-0.25" arrival="3409.00" arrivalLane="four-arm2NWB_0" arrivalPos="313.79" arrivalSpeed="11.94" duration="1050.00" routeLength="1068.24" waitingTime="941.00" waitingCount="4" stopTime="0.00" timeLoss="962.60" rerouteNo="0" devices="tripinfo_39" vType="DEFAULT_VEHTYPE" speedFactor="0.88" vaporized=""/>
    <tripinfo id="50" depart="3425.00" departLane="NWB2four-arm_LTL_0" departPos="5.10" departSpeed="13.71" departDelay="-0.09" arrival="3522.00" arrivalLane="four-arm2WB_0" arrivalPos="759.55" arrivalSpeed="13.12" duration="97.00" routeLength="1077.79" waitingTime="9.00" waitingCount="1" stopTime="0.00" timeLoss="17.50" rerouteNo="0" devices="tripinfo_50" vType="DEFAULT_VEHTYPE" speedFactor="0.99" vaporized=""/>
    <tripinfo id="30" depart="3363.00" departLane="WB2four-arm_LTL_0" departPos="5.10" departSpeed="14.11" departDelay="-0.45" arrival="3533.00" arrivalLane="T2SEB_0" arrivalPos="296.94" arrivalSpeed="13.52" duration="170.00" routeLength="2221.49" waitingTime="0.00" waitingCount="0" stopTime="0.00" timeLoss="11.23" rerouteNo="0" devices="tripinfo_30" vType="DEFAULT_VEHTYPE" speedFactor="1.02" vaporized=""/>
    <tripinfo id="49" depart="3573.00" departLane="NWB2four-arm_LTL_0" departPos="5.10" departSpeed="13.02" departDelay="-0.33" arrival="3696.00" arrivalLane="four-arm2WB_0" arrivalPos="759.55" arrivalSpeed="11.87" duration="123.00" routeLength="1077.79" waitingTime="30.00" waitingCount="1" stopTime="0.00" timeLoss="39.20" rerouteNo="0" devices="tripinfo_49" vType="DEFAULT_VEHTYPE" speedFactor="0.94" vaporized=""/>
    <tripinfo id="35" depart="2587.00" departLane="WB2four-arm_LTL_0" departPos="5.10" departSpeed="15.22" departDelay="-0.01" arrival="3709.00" arrivalLane="four-arm2NWB_0" arrivalPos="313.79" arrivalSpeed="14.98" duration="1122.00" routeLength="1068.24" waitingTime="1031.00" waitingCount="4" stopTime="0.00" timeLoss="1051.44" rerouteNo="0" devices="tripinfo_35" vType="DEFAULT_VEHTYPE" speedFactor="1.10" vaporized=""/>
    <tripinfo id="36" depart="2896.00" departLane="WB2four-arm_LTL_0" departPos="5.10" departSpeed="12.49" departDelay="-0.69" arrival="4019.00" arrivalLane="four-arm2NWB_0" arrivalPos="313.79" arrivalSpeed="11.45" duration="1123.00" routeLength="1068.24" waitingTime="1017.00" waitingCount="4" stopTime="0.00" timeLoss="1037.09" rerouteNo="0" devices="tripinfo_36" vType="DEFAULT_VEHTYPE" speedFactor="0.90" vaporized=""/>
</tripinfos>
