<?xml version="1.0" encoding="UTF-8"?>

<!-- generated on 11/25/19 17:00:03 by Eclipse SUMO GUI Version 1.3.1
<configuration xmlns:xsi="http://www.w3.org/2001/XMLSchema-instance" xsi:noNamespaceSchemaLocation="http://sumo.dlr.de/xsd/sumoConfiguration.xsd">

    <input>
        <net-file value="simpleNetwork.net.xml"/>
        <route-files value="od_route_file.odtrips.rou.xml"/>
    </input>

    <output>
        <tripinfo-output value="tripinfo.xml"/>
    </output>

    <time>
        <begin value="0"/>
        <end value="2000"/>
    </time>

    <traci_server>
        <remote-port value="63722"/>
    </traci_server>

</configuration>
-->

<tripinfos xmlns:xsi="http://www.w3.org/2001/XMLSchema-instance" xsi:noNamespaceSchemaLocation="http://sumo.dlr.de/xsd/tripinfo_file.xsd">
    <tripinfo id="57" depart="27.00" departLane="NWB2four-arm_LTL_0" departPos="5.10" departSpeed="14.72" departDelay="-0.48" arrival="431.00" arrivalLane="incoming2EB_0" arrivalPos="304.25" arrivalSpeed="14.04" duration="404.00" routeLength="1412.33" waitingTime="301.00" waitingCount="1" stopTime="0.00" timeLoss="307.56" rerouteNo="0" devices="tripinfo_57" vType="DEFAULT_VEHTYPE" speedFactor="1.06" vaporized=""/>
    <tripinfo id="46" depart="353.00" departLane="NWB2four-arm_LTL_0" departPos="5.10" departSpeed="14.03" departDelay="-0.09" arrival="436.00" arrivalLane="four-arm2WB_0" arrivalPos="759.55" arrivalSpeed="13.74" duration="83.00" routeLength="1077.79" waitingTime="0.00" waitingCount="0" stopTime="0.00" timeLoss="5.19" rerouteNo="0" devices="tripinfo_46" vType="DEFAULT_VEHTYPE" speedFactor="1.01" vaporized=""/>
    <tripinfo id="47" depart="363.00" departLane="NWB2four-arm_LTL_1" departPos="5.10" departSpeed="15.04" departDelay="-0.29" arrival="441.00" arrivalLane="four-arm2WB_0" arrivalPos="759.55" arrivalSpeed="14.74" duration="78.00" routeLength="1077.79" waitingTime="0.00" waitingCount="0" stopTime="0.00" timeLoss="5.60" rerouteNo="0" devices="tripinfo_47" vType="DEFAULT_VEHTYPE" speedFactor="1.08" vaporized=""/>
    <tripinfo id="40" depart="410.00" departLane="WB2four-arm_LTL_1" departPos="5.10" departSpeed="11.54" departDelay="-0.68" arrival="524.00" arrivalLane="four-arm2NWB_0" arrivalPos="313.79" arrivalSpeed="11.47" duration="114.00" routeLength="1087.89" waitingTime="8.00" waitingCount="1" stopTime="0.00" timeLoss="18.24" rerouteNo="0" devices="tripinfo_40" vType="DEFAULT_VEHTYPE" speedFactor="0.83" vaporized=""/>
    <tripinfo id="17" depart="163.00" departLane="WB2four-arm_LTL_0" departPos="5.10" departSpeed="13.03" departDelay="-0.02" arrival="659.00" arrivalLane="incoming2EB_0" arrivalPos="304.25" arrivalSpeed="12.90" duration="496.00" routeLength="1858.09" waitingTime="337.00" waitingCount="2" stopTime="0.00" timeLoss="353.36" rerouteNo="0" devices="tripinfo_17" vType="DEFAULT_VEHTYPE" speedFactor="0.94" vaporized=""/>
    <tripinfo id="37" depart="557.00" departLane="WB2four-arm_LTL_1" departPos="5.10" departSpeed="11.90" departDelay="-0.09" arrival="673.00" arrivalLane="four-arm2NWB_0" arrivalPos="313.79" arrivalSpeed="10.94" duration="116.00" routeLength="1087.89" waitingTime="13.00" waitingCount="1" stopTime="0.00" timeLoss="23.50" rerouteNo="0" devices="tripinfo_37" vType="DEFAULT_VEHTYPE" speedFactor="0.86" vaporized=""/>
    <tripinfo id="31" depart="423.00" departLane="WB2four-arm_LTL_1" departPos="5.10" departSpeed="14.53" departDelay="-0.68" arrival="940.00" arrivalLane="T2SEB_0" arrivalPos="296.94" arrivalSpeed="13.78" duration="517.00" routeLength="2212.46" waitingTime="348.00" waitingCount="2" stopTime="0.00" timeLoss="364.27" rerouteNo="0" devices="tripinfo_31" vType="DEFAULT_VEHTYPE" speedFactor="1.05" vaporized=""/>
    <tripinfo id="1" depart="476.00" departLane="NEB2incoming_LTL_0" departPos="5.10" departSpeed="13.03" departDelay="-0.94" arrival="957.00" arrivalLane="four-arm2WB_0" arrivalPos="759.55" arrivalSpeed="12.19" duration="481.00" routeLength="1873.98" waitingTime="321.00" waitingCount="2" stopTime="0.00" timeLoss="337.13" rerouteNo="0" devices="tripinfo_1" vType="DEFAULT_VEHTYPE" speedFactor="0.94" vaporized=""/>
    <tripinfo id="38" depart="833.00" departLane="WB2four-arm_LTL_1" departPos="5.10" departSpeed="12.87" departDelay="-0.34" arrival="1115.00" arrivalLane="four-arm2NWB_0" arrivalPos="313.79" arrivalSpeed="12.56" duration="282.00" routeLength="1087.89" waitingTime="188.00" waitingCount="1" stopTime="0.00" timeLoss="196.77" rerouteNo="0" devices="tripinfo_38" vType="DEFAULT_VEHTYPE" speedFactor="0.93" vaporized=""/>
    <tripinfo id="51" depart="1034.00" departLane="NWB2four-arm_LTL_0" departPos="5.10" departSpeed="16.09" departDelay="-0.54" arrival="1193.00" arrivalLane="four-arm2WB_0" arrivalPos="759.55" arrivalSpeed="14.85" duration="159.00" routeLength="1077.79" waitingTime="83.00" waitingCount="1" stopTime="0.00" timeLoss="91.46" rerouteNo="0" devices="tripinfo_51" vType="DEFAULT_VEHTYPE" speedFactor="1.16" vaporized=""/>
    <tripinfo id="52" depart="1130.00" departLane="NWB2four-arm_LTL_1" departPos="5.10" departSpeed="14.14" departDelay="-0.77" arrival="1213.00" arrivalLane="four-arm2WB_0" arrivalPos="759.55" arrivalSpeed="13.61" duration="83.00" routeLength="1077.79" waitingTime="0.00" waitingCount="0" stopTime="0.00" timeLoss="5.51" rerouteNo="0" devices="tripinfo_52" vType="DEFAULT_VEHTYPE" speedFactor="1.02" vaporized=""/>
    <tripinfo id="7" depart="401.00" departLane="EB2incoming_0" departPos="5.10" departSpeed="14.31" departDelay="-0.49" arrival="1258.00" arrivalLane="four-arm2WB_0" arrivalPos="759.55" arrivalSpeed="13.90" duration="857.00" routeLength="1858.17" waitingTime="708.00" waitingCount="3" stopTime="0.00" timeLoss="726.77" rerouteNo="0" devices="tripinfo_7" vType="DEFAULT_VEHTYPE" speedFactor="1.03" vaporized=""/>
    <tripinfo id="59" depart="997.00" departLane="NWB2four-arm_LTL_0" departPos="5.10" departSpeed="13.00" departDelay="-0.76" arrival="1289.00" arrivalLane="incoming2EB_1" arrivalPos="304.25" arrivalSpeed="12.72" duration="292.00" routeLength="1431.94" waitingTime="170.00" waitingCount="1" stopTime="0.00" timeLoss="180.91" rerouteNo="0" devices="tripinfo_59" vType="DEFAULT_VEHTYPE" speedFactor="0.94" vaporized=""/>
    <tripinfo id="55" depart="891.00" departLane="NWB2four-arm_LTL_0" departPos="5.10" departSpeed="13.08" departDelay="-0.90" arrival="1290.00" arrivalLane="incoming2EB_0" arrivalPos="304.25" arrivalSpeed="12.36" duration="399.00" routeLength="1431.94" waitingTime="273.00" waitingCount="2" stopTime="0.00" timeLoss="288.22" rerouteNo="0" devices="tripinfo_55" vType="DEFAULT_VEHTYPE" speedFactor="0.94" vaporized=""/>
    <tripinfo id="24" depart="436.00" departLane="WB2four-arm_LTL_1" departPos="5.10" departSpeed="12.31" departDelay="-0.43" arrival="1293.00" arrivalLane="incoming2EB_0" arrivalPos="304.25" arrivalSpeed="11.57" duration="857.00" routeLength="1858.09" waitingTime="679.00" waitingCount="4" stopTime="0.00" timeLoss="706.21" rerouteNo="0" devices="tripinfo_24" vType="DEFAULT_VEHTYPE" speedFactor="0.89" vaporized=""/>
    <tripinfo id="13" depart="666.00" departLane="SEB2T_0" departPos="5.10" departSpeed="15.15" departDelay="-0.67" arrival="1560.00" arrivalLane="four-arm2WB_0" arrivalPos="759.55" arrivalSpeed="14.56" duration="894.00" routeLength="2163.93" waitingTime="723.00" waitingCount="4" stopTime="0.00" timeLoss="749.41" rerouteNo="0" devices="tripinfo_13" vType="DEFAULT_VEHTYPE" speedFactor="1.09" vaporized=""/>
    <tripinfo id="15" depart="724.00" departLane="WB2four-arm_LTL_1" departPos="5.10" departSpeed="14.26" departDelay="-0.95" arrival="1603.00" arrivalLane="incoming2EB_0" arrivalPos="304.25" arrivalSpeed="13.83" duration="879.00" routeLength="1858.09" waitingTime="726.00" waitingCount="4" stopTime="0.00" timeLoss="748.30" rerouteNo="0" devices="tripinfo_15" vType="DEFAULT_VEHTYPE" speedFactor="1.03" vaporized=""/>
    <tripinfo id="58" depart="1184.00" departLane="NWB2four-arm_LTL_0" departPos="5.10" departSpeed="14.03" departDelay="-0.71" arrival="1603.00" arrivalLane="incoming2EB_1" arrivalPos="304.25" arrivalSpeed="12.94" duration="419.00" routeLength="1412.33" waitingTime="305.00" waitingCount="2" stopTime="0.00" timeLoss="317.98" rerouteNo="0" devices="tripinfo_58" vType="DEFAULT_VEHTYPE" speedFactor="1.01" vaporized=""/>
    <tripinfo id="62" depart="1238.00" departLane="NWB2four-arm_LTL_0" departPos="5.10" departSpeed="13.54" departDelay="-0.90" arrival="1695.00" arrivalLane="incoming2EB_0" arrivalPos="304.25" arrivalSpeed="12.89" duration="457.00" routeLength="1431.94" waitingTime="337.00" waitingCount="2" stopTime="0.00" timeLoss="350.60" rerouteNo="0" devices="tripinfo_62" vType="DEFAULT_VEHTYPE" speedFactor="0.98" vaporized=""/>
    <tripinfo id="3" depart="754.00" departLane="NEB2incoming_LTL_0" departPos="5.10" departSpeed="14.54" departDelay="-0.69" arrival="1770.00" arrivalLane="four-arm2WB_0" arrivalPos="759.55" arrivalSpeed="13.95" duration="1016.00" routeLength="1895.02" waitingTime="860.00" waitingCount="4" stopTime="0.00" timeLoss="884.55" rerouteNo="0" devices="tripinfo_3" vType="DEFAULT_VEHTYPE" speedFactor="1.05" vaporized=""/>
    <tripinfo id="8" depart="819.00" departLane="EB2incoming_0" departPos="5.10" departSpeed="13.77" departDelay="-0.88" arrival="1775.00" arrivalLane="four-arm2WB_0" arrivalPos="759.55" arrivalSpeed="13.38" duration="956.00" routeLength="1879.21" waitingTime="794.00" waitingCount="4" stopTime="0.00" timeLoss="819.03" rerouteNo="0" devices="tripinfo_8" vType="DEFAULT_VEHTYPE" speedFactor="0.99" vaporized=""/>
    <tripinfo id="5" depart="1283.00" departLane="EB2incoming_0" departPos="5.10" departSpeed="12.36" departDelay="-0.82" arrival="1785.00" arrivalLane="four-arm2WB_0" arrivalPos="759.55" arrivalSpeed="12.26" duration="502.00" routeLength="1879.21" waitingTime="329.00" waitingCount="2" stopTime="0.00" timeLoss="349.00" rerouteNo="0" devices="tripinfo_5" vType="DEFAULT_VEHTYPE" speedFactor="0.89" vaporized=""/>
    <tripinfo id="25" depart="785.00" departLane="WB2four-arm_LTL_1" departPos="5.10" departSpeed="15.60" departDelay="-0.27" arrival="1813.00" arrivalLane="T2SEB_0" arrivalPos="296.94" arrivalSpeed="15.52" duration="1028.00" routeLength="2221.49" waitingTime="861.00" waitingCount="4" stopTime="0.00" timeLoss="883.92" rerouteNo="0" devices="tripinfo_25" vType="DEFAULT_VEHTYPE" speedFactor="1.12" vaporized=""/>
    <tripinfo id="12" depart="1372.00" departLane="SEB2T_0" departPos="5.10" departSpeed="12.12" departDelay="-0.68" arrival="1821.00" arrivalLane="four-arm2WB_0" arrivalPos="759.55" arrivalSpeed="10.89" duration="449.00" routeLength="2184.97" waitingTime="249.00" waitingCount="2" stopTime="0.00" timeLoss="267.55" rerouteNo="0" devices="tripinfo_12" vType="DEFAULT_VEHTYPE" speedFactor="0.87" vaporized=""/>
    <tripinfo id="42" depart="1762.00" departLane="WB2four-arm_LTL_1" departPos="5.10" departSpeed="12.94" departDelay="-0.81" arrival="1852.00" arrivalLane="four-arm2NWB_0" arrivalPos="313.79" arrivalSpeed="12.26" duration="90.00" routeLength="1087.89" waitingTime="0.00" waitingCount="0" stopTime="0.00" timeLoss="4.74" rerouteNo="0" devices="tripinfo_42" vType="DEFAULT_VEHTYPE" speedFactor="0.93" vaporized=""/>
    <tripinfo id="33" depart="1302.00" departLane="WB2four-arm_LTL_1" departPos="5.10" departSpeed="11.47" departDelay="-0.21" arrival="1856.00" arrivalLane="T2SEB_0" arrivalPos="296.94" arrivalSpeed="10.79" duration="554.00" routeLength="2221.49" waitingTime="335.00" waitingCount="2" stopTime="0.00" timeLoss="357.93" rerouteNo="0" devices="tripinfo_33" vType="DEFAULT_VEHTYPE" speedFactor="0.83" vaporized=""/>
    <tripinfo id="26" depart="1752.00" departLane="WB2four-arm_LTL_0" departPos="5.10" departSpeed="15.72" departDelay="-0.65" arrival="1904.00" arrivalLane="T2SEB_0" arrivalPos="296.94" arrivalSpeed="14.77" duration="152.00" routeLength="2221.49" waitingTime="0.00" waitingCount="0" stopTime="0.00" timeLoss="9.01" rerouteNo="0" devices="tripinfo_26" vType="DEFAULT_VEHTYPE" speedFactor="1.13" vaporized=""/>
    <tripinfo id="20" depart="1651.00" departLane="WB2four-arm_LTL_1" departPos="5.10" departSpeed="12.74" departDelay="-0.42" arrival="1920.00" arrivalLane="incoming2EB_1" arrivalPos="304.25" arrivalSpeed="11.75" duration="269.00" routeLength="1879.16" waitingTime="100.00" waitingCount="1" stopTime="0.00" timeLoss="120.94" rerouteNo="0" devices="tripinfo_20" vType="DEFAULT_VEHTYPE" speedFactor="0.92" vaporized=""/>
    <tripinfo id="22" depart="842.00" departLane="WB2four-arm_LTL_1" departPos="5.10" departSpeed="12.20" departDelay="-0.52" arrival="1921.00" arrivalLane="incoming2EB_0" arrivalPos="304.25" arrivalSpeed="11.98" duration="1079.00" routeLength="1879.16" waitingTime="897.00" waitingCount="4" stopTime="0.00" timeLoss="924.55" rerouteNo="0" devices="tripinfo_22" vType="DEFAULT_VEHTYPE" speedFactor="0.88" vaporized=""/>
    <tripinfo id="45" depart="1822.00" departLane="NWB2four-arm_LTL_1" departPos="5.10" departSpeed="16.37" departDelay="-0.07" arrival="1975.00" arrivalLane="four-arm2WB_0" arrivalPos="759.55" arrivalSpeed="15.72" duration="153.00" routeLength="1077.79" waitingTime="77.00" waitingCount="1" stopTime="0.00" timeLoss="86.66" rerouteNo="0" devices="tripinfo_45" vType="DEFAULT_VEHTYPE" speedFactor="1.18" vaporized=""/>
    <tripinfo id="53" depart="1669.00" departLane="NWB2four-arm_LTL_0" departPos="5.10" departSpeed="13.18" departDelay="-0.56" arrival="1985.00" arrivalLane="four-arm2WB_0" arrivalPos="759.55" arrivalSpeed="11.92" duration="316.00" routeLength="1077.79" waitingTime="224.00" waitingCount="1" stopTime="0.00" timeLoss="233.13" rerouteNo="0" devices="tripinfo_53" vType="DEFAULT_VEHTYPE" speedFactor="0.95" vaporized=""/>
    <tripinfo id="54" depart="1972.00" departLane="NWB2four-arm_LTL_0" departPos="5.10" departSpeed="13.82" departDelay="-0.95" arrival="2057.00" arrivalLane="four-arm2WB_0" arrivalPos="759.55" arrivalSpeed="13.07" duration="85.00" routeLength="1077.79" waitingTime="0.00" waitingCount="0" stopTime="0.00" timeLoss="5.39" rerouteNo="0" devices="tripinfo_54" vType="DEFAULT_VEHTYPE" speedFactor="0.99" vaporized=""/>
    <tripinfo id="2" depart="1847.00" departLane="NEB2incoming_LTL_0" departPos="5.10" departSpeed="16.04" departDelay="-0.70" arrival="2184.00" arrivalLane="four-arm2WB_0" arrivalPos="759.55" arrivalSpeed="15.76" duration="337.00" routeLength="1895.02" waitingTime="204.00" waitingCount="1" stopTime="0.00" timeLoss="217.68" rerouteNo="0" devices="tripinfo_2" vType="DEFAULT_VEHTYPE" speedFactor="1.15" vaporized=""/>
    <tripinfo id="10" depart="2015.00" departLane="SEB2T_0" departPos="5.10" departSpeed="14.16" departDelay="-0.92" arrival="2193.00" arrivalLane="four-arm2WB_0" arrivalPos="759.55" arrivalSpeed="13.68" duration="178.00" routeLength="2184.97" waitingTime="7.00" waitingCount="1" stopTime="0.00" timeLoss="21.99" rerouteNo="0" devices="tripinfo_10" vType="DEFAULT_VEHTYPE" speedFactor="1.02" vaporized=""/>
    <tripinfo id="43" depart="2104.00" departLane="WB2four-arm_LTL_1" departPos="5.10" departSpeed="13.52" departDelay="-0.54" arrival="2209.00" arrivalLane="four-arm2NWB_0" arrivalPos="313.79" arrivalSpeed="13.48" duration="105.00" routeLength="1087.89" waitingTime="16.00" waitingCount="1" stopTime="0.00" timeLoss="23.69" rerouteNo="0" devices="tripinfo_43" vType="DEFAULT_VEHTYPE" speedFactor="0.97" vaporized=""/>
    <tripinfo id="41" depart="2138.00" departLane="WB2four-arm_LTL_0" departPos="5.10" departSpeed="15.31" departDelay="-0.70" arrival="2215.00" arrivalLane="four-arm2NWB_1" arrivalPos="313.79" arrivalSpeed="15.19" duration="77.00" routeLength="1087.89" waitingTime="0.00" waitingCount="0" stopTime="0.00" timeLoss="4.55" rerouteNo="0" devices="tripinfo_41" vType="DEFAULT_VEHTYPE" speedFactor="1.10" vaporized=""/>
    <tripinfo id="23" depart="1943.00" departLane="WB2four-arm_LTL_1" departPos="5.10" departSpeed="16.28" departDelay="-0.63" arrival="2229.00" arrivalLane="incoming2EB_0" arrivalPos="304.25" arrivalSpeed="15.17" duration="286.00" routeLength="1879.16" waitingTime="153.00" waitingCount="2" stopTime="0.00" timeLoss="170.53" rerouteNo="0" devices="tripinfo_23" vType="DEFAULT_VEHTYPE" speedFactor="1.17" vaporized=""/>
    <tripinfo id="16" depart="1848.00" departLane="WB2four-arm_LTL_0" departPos="5.10" departSpeed="13.96" departDelay="-0.48" arrival="2233.00" arrivalLane="incoming2EB_1" arrivalPos="304.25" arrivalSpeed="13.42" duration="385.00" routeLength="1879.16" waitingTime="232.00" waitingCount="2" stopTime="0.00" timeLoss="249.75" rerouteNo="0" devices="tripinfo_16" vType="DEFAULT_VEHTYPE" speedFactor="1.01" vaporized=""/>
    <tripinfo id="28" depart="2116.00" departLane="WB2four-arm_LTL_1" departPos="5.10" departSpeed="16.39" departDelay="-0.75" arrival="2261.00" arrivalLane="T2SEB_0" arrivalPos="296.94" arrivalSpeed="16.18" duration="145.00" routeLength="2221.49" waitingTime="0.00" waitingCount="0" stopTime="0.00" timeLoss="8.49" rerouteNo="0" devices="tripinfo_28" vType="DEFAULT_VEHTYPE" speedFactor="1.18" vaporized=""/>
    <tripinfo id="44" depart="2198.00" departLane="WB2four-arm_LTL_1" departPos="5.10" departSpeed="14.31" departDelay="-0.82" arrival="2279.00" arrivalLane="four-arm2NWB_1" arrivalPos="313.79" arrivalSpeed="13.63" duration="81.00" routeLength="1087.89" waitingTime="0.00" waitingCount="0" stopTime="0.00" timeLoss="4.26" rerouteNo="0" devices="tripinfo_44" vType="DEFAULT_VEHTYPE" speedFactor="1.03" vaporized=""/>
    <tripinfo id="39" depart="2359.00" departLane="WB2four-arm_LTL_1" departPos="5.10" departSpeed="12.18" departDelay="-0.25" arrival="2455.00" arrivalLane="four-arm2NWB_0" arrivalPos="313.79" arrivalSpeed="11.64" duration="96.00" routeLength="1087.89" waitingTime="0.00" waitingCount="0" stopTime="0.00" timeLoss="5.38" rerouteNo="0" devices="tripinfo_39" vType="DEFAULT_VEHTYPE" speedFactor="0.88" vaporized=""/>
    <tripinfo id="32" depart="2169.00" departLane="WB2four-arm_LTL_0" departPos="5.10" departSpeed="12.51" departDelay="-0.75" arrival="2662.00" arrivalLane="T2SEB_0" arrivalPos="296.94" arrivalSpeed="11.58" duration="493.00" routeLength="2212.46" waitingTime="301.00" waitingCount="1" stopTime="0.00" timeLoss="315.21" rerouteNo="0" devices="tripinfo_32" vType="DEFAULT_VEHTYPE" speedFactor="0.90" vaporized=""/>
    <tripinfo id="35" depart="2587.00" departLane="WB2four-arm_LTL_1" departPos="5.10" departSpeed="15.22" departDelay="-0.01" arrival="2664.00" arrivalLane="four-arm2NWB_1" arrivalPos="313.79" arrivalSpeed="14.17" duration="77.00" routeLength="1087.89" waitingTime="0.00" waitingCount="0" stopTime="0.00" timeLoss="4.34" rerouteNo="0" devices="tripinfo_35" vType="DEFAULT_VEHTYPE" speedFactor="1.10" vaporized=""/>
    <tripinfo id="14" depart="2248.00" departLane="SEB2T_0" departPos="5.10" departSpeed="15.17" departDelay="-0.33" arrival="2808.00" arrivalLane="four-arm2WB_0" arrivalPos="759.55" arrivalSpeed="14.99" duration="560.00" routeLength="2163.93" waitingTime="400.00" waitingCount="2" stopTime="0.00" timeLoss="415.99" rerouteNo="0" devices="tripinfo_14" vType="DEFAULT_VEHTYPE" speedFactor="1.09" vaporized=""/>
    <tripinfo id="56" depart="2252.00" departLane="NWB2four-arm_LTL_0" departPos="5.10" departSpeed="14.41" departDelay="-0.80" arrival="2862.00" arrivalLane="incoming2EB_0" arrivalPos="304.25" arrivalSpeed="13.55" duration="610.00" routeLength="1412.33" waitingTime="497.00" waitingCount="2" stopTime="0.00" timeLoss="512.14" rerouteNo="0" devices="tripinfo_56" vType="DEFAULT_VEHTYPE" speedFactor="1.04" vaporized=""/>
    <tripinfo id="48" depart="2807.00" departLane="NWB2four-arm_LTL_0" departPos="5.10" departSpeed="13.93" departDelay="-0.46" arrival="2891.00" arrivalLane="four-arm2WB_0" arrivalPos="759.55" arrivalSpeed="13.17" duration="84.00" routeLength="1077.79" waitingTime="0.00" waitingCount="0" stopTime="0.00" timeLoss="5.42" rerouteNo="0" devices="tripinfo_48" vType="DEFAULT_VEHTYPE" speedFactor="1.00" vaporized=""/>
    <tripinfo id="18" depart="2239.00" departLane="WB2four-arm_LTL_0" departPos="5.10" departSpeed="13.29" departDelay="-0.54" arrival="2931.00" arrivalLane="incoming2EB_0" arrivalPos="304.25" arrivalSpeed="12.11" duration="692.00" routeLength="1858.09" waitingTime="536.00" waitingCount="2" stopTime="0.00" timeLoss="551.88" rerouteNo="0" devices="tripinfo_18" vType="DEFAULT_VEHTYPE" speedFactor="0.96" vaporized=""/>
    <tripinfo id="36" depart="2896.00" departLane="WB2four-arm_LTL_1" departPos="5.10" departSpeed="12.49" departDelay="-0.69" arrival="2989.00" arrivalLane="four-arm2NWB_0" arrivalPos="313.79" arrivalSpeed="11.73" duration="93.00" routeLength="1087.89" waitingTime="0.00" waitingCount="0" stopTime="0.00" timeLoss="4.88" rerouteNo="0" devices="tripinfo_36" vType="DEFAULT_VEHTYPE" speedFactor="0.90" vaporized=""/>
    <tripinfo id="0" depart="2488.00" departLane="NEB2incoming_LTL_0" departPos="5.10" departSpeed="16.24" departDelay="-0.08" arrival="3108.00" arrivalLane="four-arm2WB_0" arrivalPos="759.55" arrivalSpeed="15.89" duration="620.00" routeLength="1873.98" waitingTime="492.00" waitingCount="2" stopTime="0.00" timeLoss="503.92" rerouteNo="0" devices="tripinfo_0" vType="DEFAULT_VEHTYPE" speedFactor="1.17" vaporized=""/>
    <tripinfo id="61" depart="2341.00" departLane="NWB2four-arm_LTL_0" departPos="5.10" departSpeed="12.51" departDelay="-0.13" arrival="3180.00" arrivalLane="incoming2EB_0" arrivalPos="304.25" arrivalSpeed="12.21" duration="839.00" routeLength="1412.33" waitingTime="707.00" waitingCount="3" stopTime="0.00" timeLoss="726.14" rerouteNo="0" devices="tripinfo_61" vType="DEFAULT_VEHTYPE" speedFactor="0.90" vaporized=""/>
    <tripinfo id="34" depart="2279.00" departLane="WB2four-arm_LTL_1" departPos="5.10" departSpeed="14.49" departDelay="-0.74" arrival="3254.00" arrivalLane="T2SEB_0" arrivalPos="296.94" arrivalSpeed="13.48" duration="975.00" routeLength="2212.46" waitingTime="803.00" waitingCount="3" stopTime="0.00" timeLoss="821.99" rerouteNo="0" devices="tripinfo_34" vType="DEFAULT_VEHTYPE" speedFactor="1.04" vaporized=""/>
    <tripinfo id="9" depart="2300.00" departLane="EB2incoming_0" departPos="5.10" departSpeed="15.11" departDelay="-0.46" arrival="3403.00" arrivalLane="four-arm2WB_0" arrivalPos="759.55" arrivalSpeed="15.03" duration="1103.00" routeLength="1879.21" waitingTime="955.00" waitingCount="4" stopTime="0.00" timeLoss="977.91" rerouteNo="0" devices="tripinfo_9" vType="DEFAULT_VEHTYPE" speedFactor="1.09" vaporized=""/>
    <tripinfo id="11" depart="2901.00" departLane="SEB2T_0" departPos="5.10" departSpeed="15.87" departDelay="-0.62" arrival="3404.00" arrivalLane="four-arm2WB_1" arrivalPos="759.55" arrivalSpeed="15.02" duration="503.00" routeLength="2184.97" waitingTime="343.00" waitingCount="2" stopTime="0.00" timeLoss="363.91" rerouteNo="0" devices="tripinfo_11" vType="DEFAULT_VEHTYPE" speedFactor="1.14" vaporized=""/>
    <tripinfo id="6" depart="2852.00" departLane="EB2incoming_0" departPos="5.10" departSpeed="13.83" departDelay="-0.53" arrival="3410.00" arrivalLane="four-arm2WB_0" arrivalPos="759.55" arrivalSpeed="13.52" duration="558.00" routeLength="1879.21" waitingTime="406.00" waitingCount="2" stopTime="0.00" timeLoss="421.35" rerouteNo="0" devices="tripinfo_6" vType="DEFAULT_VEHTYPE" speedFactor="1.00" vaporized=""/>
    <tripinfo id="4" depart="2950.00" departLane="NEB2incoming_LTL_0" departPos="5.10" departSpeed="14.22" departDelay="-0.16" arrival="3412.00" arrivalLane="four-arm2WB_0" arrivalPos="759.55" arrivalSpeed="13.16" duration="462.00" routeLength="1895.02" waitingTime="309.00" waitingCount="2" stopTime="0.00" timeLoss="327.79" rerouteNo="0" devices="tripinfo_4" vType="DEFAULT_VEHTYPE" speedFactor="1.02" vaporized=""/>
    <tripinfo id="27" depart="2313.00" departLane="WB2four-arm_LTL_1" departPos="5.10" departSpeed="13.85" departDelay="-0.26" arrival="3461.00" arrivalLane="T2SEB_0" arrivalPos="296.94" arrivalSpeed="13.82" duration="1148.00" routeLength="2221.49" waitingTime="960.00" waitingCount="4" stopTime="0.00" timeLoss="986.16" rerouteNo="0" devices="tripinfo_27" vType="DEFAULT_VEHTYPE" speedFactor="1.00" vaporized=""/>
    <tripinfo id="29" depart="3001.00" departLane="WB2four-arm_LTL_1" departPos="5.10" departSpeed="13.47" departDelay="-0.37" arrival="3470.00" arrivalLane="T2SEB_0" arrivalPos="296.94" arrivalSpeed="13.27" duration="469.00" routeLength="2221.49" waitingTime="282.00" waitingCount="2" stopTime="0.00" timeLoss="302.15" rerouteNo="0" devices="tripinfo_29" vType="DEFAULT_VEHTYPE" speedFactor="0.97" vaporized=""/>
    <tripinfo id="64" depart="3225.00" departLane="NWB2four-arm_LTL_0" departPos="5.10" departSpeed="15.55" departDelay="-0.98" arrival="3490.00" arrivalLane="incoming2EB_0" arrivalPos="304.25" arrivalSpeed="14.77" duration="265.00" routeLength="1431.94" waitingTime="162.00" waitingCount="1" stopTime="0.00" timeLoss="172.24" rerouteNo="0" devices="tripinfo_64" vType="DEFAULT_VEHTYPE" speedFactor="1.12" vaporized=""/>
    <tripinfo id="21" depart="3181.00" departLane="WB2four-arm_LTL_1" departPos="5.10" departSpeed="15.04" departDelay="-0.59" arrival="3493.00" arrivalLane="incoming2EB_0" arrivalPos="304.25" arrivalSpeed="14.37" duration="312.00" routeLength="1879.16" waitingTime="166.00" waitingCount="2" stopTime="0.00" timeLoss="186.65" rerouteNo="0" devices="tripinfo_21" vType="DEFAULT_VEHTYPE" speedFactor="1.08" vaporized=""/>
    <tripinfo id="60" depart="2573.00" departLane="NWB2four-arm_LTL_0" departPos="5.10" departSpeed="14.12" departDelay="-0.19" arrival="3495.00" arrivalLane="incoming2EB_1" arrivalPos="304.25" arrivalSpeed="13.05" duration="922.00" routeLength="1431.94" waitingTime="796.00" waitingCount="4" stopTime="0.00" timeLoss="819.87" rerouteNo="0" devices="tripinfo_60" vType="DEFAULT_VEHTYPE" speedFactor="1.02" vaporized=""/>
    <tripinfo id="63" depart="2442.00" departLane="NWB2four-arm_LTL_0" departPos="5.10" departSpeed="11.87" departDelay="-0.60" arrival="3496.00" arrivalLane="incoming2EB_0" arrivalPos="304.25" arrivalSpeed="11.60" duration="1054.00" routeLength="1412.33" waitingTime="913.00" waitingCount="4" stopTime="0.00" timeLoss="935.51" rerouteNo="0" devices="tripinfo_63" vType="DEFAULT_VEHTYPE" speedFactor="0.85" vaporized=""/>
    <tripinfo id="19" depart="2436.00" departLane="WB2four-arm_LTL_1" departPos="5.10" departSpeed="11.81" departDelay="-0.32" arrival="3501.00" arrivalLane="incoming2EB_0" arrivalPos="304.25" arrivalSpeed="10.88" duration="1065.00" routeLength="1879.16" waitingTime="870.00" waitingCount="5" stopTime="0.00" timeLoss="905.17" rerouteNo="0" devices="tripinfo_19" vType="DEFAULT_VEHTYPE" speedFactor="0.85" vaporized=""/>
    <tripinfo id="30" depart="3363.00" departLane="WB2four-arm_LTL_0" departPos="5.10" departSpeed="14.11" departDelay="-0.45" arrival="3532.00" arrivalLane="T2SEB_0" arrivalPos="296.94" arrivalSpeed="13.69" duration="169.00" routeLength="2221.49" waitingTime="0.00" waitingCount="0" stopTime="0.00" timeLoss="10.23" rerouteNo="0" devices="tripinfo_30" vType="DEFAULT_VEHTYPE" speedFactor="1.02" vaporized=""/>
    <tripinfo id="50" depart="3425.00" departLane="NWB2four-arm_LTL_0" departPos="5.10" departSpeed="13.71" departDelay="-0.09" arrival="3618.00" arrivalLane="four-arm2WB_0" arrivalPos="759.55" arrivalSpeed="13.00" duration="193.00" routeLength="1077.79" waitingTime="104.00" waitingCount="1" stopTime="0.00" timeLoss="113.62" rerouteNo="0" devices="tripinfo_50" vType="DEFAULT_VEHTYPE" speedFactor="0.99" vaporized=""/>
    <tripinfo id="49" depart="3573.00" departLane="NWB2four-arm_LTL_0" departPos="5.10" departSpeed="13.02" departDelay="-0.33" arrival="3663.00" arrivalLane="four-arm2WB_0" arrivalPos="759.55" arrivalSpeed="11.92" duration="90.00" routeLength="1077.79" waitingTime="0.00" waitingCount="0" stopTime="0.00" timeLoss="5.95" rerouteNo="0" devices="tripinfo_49" vType="DEFAULT_VEHTYPE" speedFactor="0.94" vaporized=""/>
</tripinfos>
