<?xml version="1.0" encoding="UTF-8"?>

<!-- generated on 12/17/19 17:21:10 by Eclipse SUMO Version 1.3.1
<configuration xmlns:xsi="http://www.w3.org/2001/XMLSchema-instance" xsi:noNamespaceSchemaLocation="http://sumo.dlr.de/xsd/sumoConfiguration.xsd">

    <input>
        <net-file value="simpleNetwork.net.xml"/>
        <route-files value="od_route_file.odtrips.rou.xml"/>
    </input>

    <output>
        <tripinfo-output value="tripinfo.xml"/>
    </output>

    <time>
        <begin value="0"/>
        <end value="2000"/>
    </time>

    <traci_server>
        <remote-port value="61047"/>
    </traci_server>

</configuration>
-->

<tripinfos xmlns:xsi="http://www.w3.org/2001/XMLSchema-instance" xsi:noNamespaceSchemaLocation="http://sumo.dlr.de/xsd/tripinfo_file.xsd">
    <tripinfo id="57" depart="27.00" departLane="NWB2four-arm_LTL_0" departPos="5.10" departSpeed="14.72" departDelay="-0.48" arrival="551.00" arrivalLane="incoming2EB_0" arrivalPos="304.25" arrivalSpeed="14.04" duration="524.00" routeLength="1431.94" waitingTime="412.00" waitingCount="2" stopTime="0.00" timeLoss="425.85" rerouteNo="0" devices="tripinfo_57" vType="DEFAULT_VEHTYPE" speedFactor="1.06" vaporized=""/>
    <tripinfo id="17" depart="163.00" departLane="WB2four-arm_LTL_0" departPos="5.10" departSpeed="13.03" departDelay="-0.02" arrival="554.00" arrivalLane="incoming2EB_1" arrivalPos="304.25" arrivalSpeed="12.75" duration="391.00" routeLength="1879.16" waitingTime="228.00" waitingCount="2" stopTime="0.00" timeLoss="246.42" rerouteNo="0" devices="tripinfo_17" vType="DEFAULT_VEHTYPE" speedFactor="0.94" vaporized=""/>
    <tripinfo id="40" depart="410.00" departLane="WB2four-arm_LTL_1" departPos="5.10" departSpeed="11.54" departDelay="-0.68" arrival="559.00" arrivalLane="four-arm2NWB_0" arrivalPos="313.79" arrivalSpeed="11.34" duration="149.00" routeLength="1087.89" waitingTime="44.00" waitingCount="1" stopTime="0.00" timeLoss="53.44" rerouteNo="0" devices="tripinfo_40" vType="DEFAULT_VEHTYPE" speedFactor="0.83" vaporized=""/>
    <tripinfo id="31" depart="423.00" departLane="WB2four-arm_LTL_1" departPos="5.10" departSpeed="14.53" departDelay="-0.68" arrival="587.00" arrivalLane="T2SEB_0" arrivalPos="296.94" arrivalSpeed="13.78" duration="164.00" routeLength="2221.49" waitingTime="0.00" waitingCount="0" stopTime="0.00" timeLoss="9.86" rerouteNo="0" devices="tripinfo_31" vType="DEFAULT_VEHTYPE" speedFactor="1.05" vaporized=""/>
    <tripinfo id="24" depart="436.00" departLane="WB2four-arm_LTL_0" departPos="5.10" departSpeed="12.31" departDelay="-0.43" arrival="597.00" arrivalLane="incoming2EB_0" arrivalPos="304.25" arrivalSpeed="11.26" duration="161.00" routeLength="1879.16" waitingTime="0.00" waitingCount="0" stopTime="0.00" timeLoss="8.16" rerouteNo="0" devices="tripinfo_24" vType="DEFAULT_VEHTYPE" speedFactor="0.89" vaporized=""/>
    <tripinfo id="37" depart="557.00" departLane="WB2four-arm_LTL_0" departPos="5.10" departSpeed="11.90" departDelay="-0.09" arrival="656.00" arrivalLane="four-arm2NWB_0" arrivalPos="313.79" arrivalSpeed="10.70" duration="99.00" routeLength="1087.89" waitingTime="0.00" waitingCount="0" stopTime="0.00" timeLoss="6.22" rerouteNo="0" devices="tripinfo_37" vType="DEFAULT_VEHTYPE" speedFactor="0.86" vaporized=""/>
    <tripinfo id="47" depart="363.00" departLane="NWB2four-arm_LTL_1" departPos="5.10" departSpeed="15.04" departDelay="-0.29" arrival="689.00" arrivalLane="four-arm2WB_0" arrivalPos="759.55" arrivalSpeed="14.29" duration="326.00" routeLength="1077.79" waitingTime="244.00" waitingCount="1" stopTime="0.00" timeLoss="253.49" rerouteNo="0" devices="tripinfo_47" vType="DEFAULT_VEHTYPE" speedFactor="1.08" vaporized=""/>
    <tripinfo id="46" depart="353.00" departLane="NWB2four-arm_LTL_0" departPos="5.10" departSpeed="14.03" departDelay="-0.09" arrival="691.00" arrivalLane="four-arm2WB_1" arrivalPos="759.55" arrivalSpeed="13.55" duration="338.00" routeLength="1077.79" waitingTime="252.00" waitingCount="1" stopTime="0.00" timeLoss="259.89" rerouteNo="0" devices="tripinfo_46" vType="DEFAULT_VEHTYPE" speedFactor="1.01" vaporized=""/>
    <tripinfo id="7" depart="401.00" departLane="EB2incoming_0" departPos="5.10" departSpeed="14.31" departDelay="-0.49" arrival="903.00" arrivalLane="four-arm2WB_0" arrivalPos="759.55" arrivalSpeed="13.35" duration="502.00" routeLength="1879.21" waitingTime="352.00" waitingCount="2" stopTime="0.00" timeLoss="370.05" rerouteNo="0" devices="tripinfo_7" vType="DEFAULT_VEHTYPE" speedFactor="1.03" vaporized=""/>
    <tripinfo id="13" depart="666.00" departLane="SEB2T_0" departPos="5.10" departSpeed="15.15" departDelay="-0.67" arrival="903.00" arrivalLane="four-arm2WB_1" arrivalPos="759.55" arrivalSpeed="14.75" duration="237.00" routeLength="2184.97" waitingTime="73.00" waitingCount="1" stopTime="0.00" timeLoss="90.99" rerouteNo="0" devices="tripinfo_13" vType="DEFAULT_VEHTYPE" speedFactor="1.09" vaporized=""/>
    <tripinfo id="3" depart="754.00" departLane="NEB2incoming_LTL_0" departPos="5.10" departSpeed="14.54" departDelay="-0.69" arrival="906.00" arrivalLane="four-arm2WB_1" arrivalPos="759.55" arrivalSpeed="14.06" duration="152.00" routeLength="1895.02" waitingTime="5.00" waitingCount="1" stopTime="0.00" timeLoss="19.97" rerouteNo="0" devices="tripinfo_3" vType="DEFAULT_VEHTYPE" speedFactor="1.05" vaporized=""/>
    <tripinfo id="1" depart="476.00" departLane="NEB2incoming_LTL_0" departPos="5.10" departSpeed="13.03" departDelay="-0.94" arrival="907.00" arrivalLane="four-arm2WB_0" arrivalPos="759.55" arrivalSpeed="12.54" duration="431.00" routeLength="1895.02" waitingTime="270.00" waitingCount="1" stopTime="0.00" timeLoss="284.23" rerouteNo="0" devices="tripinfo_1" vType="DEFAULT_VEHTYPE" speedFactor="0.94" vaporized=""/>
    <tripinfo id="15" depart="724.00" departLane="WB2four-arm_LTL_0" departPos="5.10" departSpeed="14.26" departDelay="-0.95" arrival="926.00" arrivalLane="incoming2EB_0" arrivalPos="304.25" arrivalSpeed="14.08" duration="202.00" routeLength="1879.16" waitingTime="58.00" waitingCount="1" stopTime="0.00" timeLoss="69.97" rerouteNo="0" devices="tripinfo_15" vType="DEFAULT_VEHTYPE" speedFactor="1.03" vaporized=""/>
    <tripinfo id="25" depart="785.00" departLane="WB2four-arm_LTL_1" departPos="5.10" departSpeed="15.60" departDelay="-0.27" arrival="946.00" arrivalLane="T2SEB_0" arrivalPos="296.94" arrivalSpeed="15.52" duration="161.00" routeLength="2221.49" waitingTime="3.00" waitingCount="1" stopTime="0.00" timeLoss="16.84" rerouteNo="0" devices="tripinfo_25" vType="DEFAULT_VEHTYPE" speedFactor="1.12" vaporized=""/>
    <tripinfo id="8" depart="819.00" departLane="EB2incoming_0" departPos="5.10" departSpeed="13.77" departDelay="-0.88" arrival="963.00" arrivalLane="four-arm2WB_0" arrivalPos="759.55" arrivalSpeed="12.91" duration="144.00" routeLength="1879.21" waitingTime="0.00" waitingCount="0" stopTime="0.00" timeLoss="6.65" rerouteNo="0" devices="tripinfo_8" vType="DEFAULT_VEHTYPE" speedFactor="0.99" vaporized=""/>
    <tripinfo id="38" depart="833.00" departLane="WB2four-arm_LTL_1" departPos="5.10" departSpeed="12.87" departDelay="-0.34" arrival="975.00" arrivalLane="four-arm2NWB_0" arrivalPos="313.79" arrivalSpeed="12.56" duration="142.00" routeLength="1087.89" waitingTime="48.00" waitingCount="1" stopTime="0.00" timeLoss="56.67" rerouteNo="0" devices="tripinfo_38" vType="DEFAULT_VEHTYPE" speedFactor="0.93" vaporized=""/>
    <tripinfo id="51" depart="1034.00" departLane="NWB2four-arm_LTL_0" departPos="5.10" departSpeed="16.09" departDelay="-0.54" arrival="1107.00" arrivalLane="four-arm2WB_0" arrivalPos="759.55" arrivalSpeed="15.31" duration="73.00" routeLength="1077.79" waitingTime="0.00" waitingCount="0" stopTime="0.00" timeLoss="4.74" rerouteNo="0" devices="tripinfo_51" vType="DEFAULT_VEHTYPE" speedFactor="1.16" vaporized=""/>
    <tripinfo id="22" depart="842.00" departLane="WB2four-arm_LTL_1" departPos="5.10" departSpeed="12.20" departDelay="-0.52" arrival="1186.00" arrivalLane="incoming2EB_0" arrivalPos="304.25" arrivalSpeed="11.66" duration="344.00" routeLength="1879.16" waitingTime="175.00" waitingCount="1" stopTime="0.00" timeLoss="189.60" rerouteNo="0" devices="tripinfo_22" vType="DEFAULT_VEHTYPE" speedFactor="0.88" vaporized=""/>
    <tripinfo id="55" depart="891.00" departLane="NWB2four-arm_LTL_0" departPos="5.10" departSpeed="13.08" departDelay="-0.90" arrival="1248.00" arrivalLane="incoming2EB_0" arrivalPos="304.25" arrivalSpeed="11.92" duration="357.00" routeLength="1431.94" waitingTime="236.00" waitingCount="1" stopTime="0.00" timeLoss="246.98" rerouteNo="0" devices="tripinfo_55" vType="DEFAULT_VEHTYPE" speedFactor="0.94" vaporized=""/>
    <tripinfo id="59" depart="997.00" departLane="NWB2four-arm_LTL_0" departPos="5.10" departSpeed="13.00" departDelay="-0.76" arrival="1251.00" arrivalLane="incoming2EB_0" arrivalPos="304.25" arrivalSpeed="12.35" duration="254.00" routeLength="1431.94" waitingTime="133.00" waitingCount="1" stopTime="0.00" timeLoss="142.64" rerouteNo="0" devices="tripinfo_59" vType="DEFAULT_VEHTYPE" speedFactor="0.94" vaporized=""/>
    <tripinfo id="58" depart="1184.00" departLane="NWB2four-arm_LTL_1" departPos="5.10" departSpeed="14.03" departDelay="-0.71" arrival="1498.00" arrivalLane="incoming2EB_0" arrivalPos="304.25" arrivalSpeed="13.77" duration="314.00" routeLength="1431.94" waitingTime="199.00" waitingCount="1" stopTime="0.00" timeLoss="210.57" rerouteNo="0" devices="tripinfo_58" vType="DEFAULT_VEHTYPE" speedFactor="1.01" vaporized=""/>
    <tripinfo id="52" depart="1130.00" departLane="NWB2four-arm_LTL_0" departPos="5.10" departSpeed="14.14" departDelay="-0.77" arrival="1512.00" arrivalLane="four-arm2WB_0" arrivalPos="759.55" arrivalSpeed="13.54" duration="382.00" routeLength="1068.24" waitingTime="301.00" waitingCount="1" stopTime="0.00" timeLoss="306.06" rerouteNo="0" devices="tripinfo_52" vType="DEFAULT_VEHTYPE" speedFactor="1.02" vaporized=""/>
    <tripinfo id="5" depart="1283.00" departLane="EB2incoming_0" departPos="5.10" departSpeed="12.36" departDelay="-0.82" arrival="1750.00" arrivalLane="four-arm2WB_0" arrivalPos="759.55" arrivalSpeed="12.32" duration="467.00" routeLength="1879.21" waitingTime="296.00" waitingCount="2" stopTime="0.00" timeLoss="313.93" rerouteNo="0" devices="tripinfo_5" vType="DEFAULT_VEHTYPE" speedFactor="0.89" vaporized=""/>
    <tripinfo id="12" depart="1372.00" departLane="SEB2T_0" departPos="5.10" departSpeed="12.12" departDelay="-0.68" arrival="1753.00" arrivalLane="four-arm2WB_0" arrivalPos="759.55" arrivalSpeed="11.81" duration="381.00" routeLength="2184.97" waitingTime="173.00" waitingCount="3" stopTime="0.00" timeLoss="198.45" rerouteNo="0" devices="tripinfo_12" vType="DEFAULT_VEHTYPE" speedFactor="0.87" vaporized=""/>
    <tripinfo id="62" depart="1238.00" departLane="NWB2four-arm_LTL_1" departPos="5.10" departSpeed="13.54" departDelay="-0.90" arrival="1813.00" arrivalLane="incoming2EB_0" arrivalPos="304.25" arrivalSpeed="13.23" duration="575.00" routeLength="1412.33" waitingTime="460.00" waitingCount="2" stopTime="0.00" timeLoss="470.80" rerouteNo="0" devices="tripinfo_62" vType="DEFAULT_VEHTYPE" speedFactor="0.98" vaporized=""/>
    <tripinfo id="20" depart="1651.00" departLane="WB2four-arm_LTL_1" departPos="5.10" departSpeed="12.74" departDelay="-0.42" arrival="1814.00" arrivalLane="incoming2EB_1" arrivalPos="304.25" arrivalSpeed="12.53" duration="163.00" routeLength="1879.16" waitingTime="2.00" waitingCount="1" stopTime="0.00" timeLoss="15.35" rerouteNo="0" devices="tripinfo_20" vType="DEFAULT_VEHTYPE" speedFactor="0.92" vaporized=""/>
    <tripinfo id="33" depart="1302.00" departLane="WB2four-arm_LTL_0" departPos="5.10" departSpeed="11.47" departDelay="-0.21" arrival="1816.00" arrivalLane="T2SEB_0" arrivalPos="296.94" arrivalSpeed="10.35" duration="514.00" routeLength="2212.46" waitingTime="303.00" waitingCount="2" stopTime="0.00" timeLoss="320.68" rerouteNo="0" devices="tripinfo_33" vType="DEFAULT_VEHTYPE" speedFactor="0.83" vaporized=""/>
    <tripinfo id="42" depart="1762.00" departLane="WB2four-arm_LTL_1" departPos="5.10" departSpeed="12.94" departDelay="-0.81" arrival="1852.00" arrivalLane="four-arm2NWB_0" arrivalPos="313.79" arrivalSpeed="12.26" duration="90.00" routeLength="1087.89" waitingTime="0.00" waitingCount="0" stopTime="0.00" timeLoss="4.49" rerouteNo="0" devices="tripinfo_42" vType="DEFAULT_VEHTYPE" speedFactor="0.93" vaporized=""/>
    <tripinfo id="45" depart="1822.00" departLane="NWB2four-arm_LTL_1" departPos="5.10" departSpeed="16.37" departDelay="-0.07" arrival="1945.00" arrivalLane="four-arm2WB_0" arrivalPos="759.55" arrivalSpeed="15.83" duration="123.00" routeLength="1077.79" waitingTime="48.00" waitingCount="1" stopTime="0.00" timeLoss="56.41" rerouteNo="0" devices="tripinfo_45" vType="DEFAULT_VEHTYPE" speedFactor="1.18" vaporized=""/>
    <tripinfo id="53" depart="1669.00" departLane="NWB2four-arm_LTL_0" departPos="5.10" departSpeed="13.18" departDelay="-0.56" arrival="1955.00" arrivalLane="four-arm2WB_0" arrivalPos="759.55" arrivalSpeed="12.11" duration="286.00" routeLength="1077.79" waitingTime="194.00" waitingCount="1" stopTime="0.00" timeLoss="203.45" rerouteNo="0" devices="tripinfo_53" vType="DEFAULT_VEHTYPE" speedFactor="0.95" vaporized=""/>
</tripinfos>
