<?xml version="1.0" encoding="UTF-8"?>

<!-- generated on 11/06/19 23:23:41 by Eclipse SUMO GUI Version 1.3.1
<configuration xmlns:xsi="http://www.w3.org/2001/XMLSchema-instance" xsi:noNamespaceSchemaLocation="http://sumo.dlr.de/xsd/sumoConfiguration.xsd">

    <input>
        <net-file value="simpleNetwork.net.xml"/>
        <route-files value="od_route_file.odtrips.rou.xml"/>
    </input>

    <output>
        <tripinfo-output value="tripinfo.xml"/>
    </output>

    <time>
        <begin value="0"/>
        <end value="2000"/>
    </time>

    <traci_server>
        <remote-port value="54570"/>
    </traci_server>

</configuration>
-->

<tripinfos xmlns:xsi="http://www.w3.org/2001/XMLSchema-instance" xsi:noNamespaceSchemaLocation="http://sumo.dlr.de/xsd/tripinfo_file.xsd">
    <tripinfo id="46" depart="353.00" departLane="NWB2four-arm_0" departPos="5.10" departSpeed="14.03" departDelay="-0.09" arrival="436.00" arrivalLane="four-arm2WB_0" arrivalPos="759.55" arrivalSpeed="13.44" duration="83.00" routeLength="1077.79" waitingTime="0.00" waitingCount="0" stopTime="0.00" timeLoss="4.93" rerouteNo="0" devices="tripinfo_46" vType="DEFAULT_VEHTYPE" speedFactor="1.01" vaporized=""/>
    <tripinfo id="57" depart="27.00" departLane="NWB2four-arm_0" departPos="5.10" departSpeed="14.72" departDelay="-0.48" arrival="450.00" arrivalLane="incoming2EB_0" arrivalPos="304.25" arrivalSpeed="14.42" duration="423.00" routeLength="1411.08" waitingTime="314.00" waitingCount="2" stopTime="0.00" timeLoss="326.37" rerouteNo="0" devices="tripinfo_57" vType="DEFAULT_VEHTYPE" speedFactor="1.06" vaporized=""/>
    <tripinfo id="47" depart="363.00" departLane="NWB2four-arm_1" departPos="5.10" departSpeed="15.04" departDelay="-0.29" arrival="473.00" arrivalLane="four-arm2WB_0" arrivalPos="759.55" arrivalSpeed="15.01" duration="110.00" routeLength="1077.79" waitingTime="29.00" waitingCount="1" stopTime="0.00" timeLoss="37.12" rerouteNo="0" devices="tripinfo_47" vType="DEFAULT_VEHTYPE" speedFactor="1.08" vaporized=""/>
    <tripinfo id="40" depart="410.00" departLane="WB2four-arm_0" departPos="5.10" departSpeed="11.54" departDelay="-0.68" arrival="519.00" arrivalLane="four-arm2NWB_0" arrivalPos="313.79" arrivalSpeed="10.52" duration="109.00" routeLength="1087.89" waitingTime="4.00" waitingCount="1" stopTime="0.00" timeLoss="13.60" rerouteNo="0" devices="tripinfo_40" vType="DEFAULT_VEHTYPE" speedFactor="0.83" vaporized=""/>
    <tripinfo id="31" depart="423.00" departLane="WB2four-arm_1" departPos="5.10" departSpeed="14.53" departDelay="-0.68" arrival="588.00" arrivalLane="T2SEB_0" arrivalPos="296.94" arrivalSpeed="14.16" duration="165.00" routeLength="2221.49" waitingTime="0.00" waitingCount="0" stopTime="0.00" timeLoss="9.85" rerouteNo="0" devices="tripinfo_31" vType="DEFAULT_VEHTYPE" speedFactor="1.05" vaporized=""/>
    <tripinfo id="17" depart="163.00" departLane="WB2four-arm_0" departPos="5.10" departSpeed="13.03" departDelay="-0.02" arrival="628.00" arrivalLane="incoming2EB_0" arrivalPos="304.25" arrivalSpeed="12.71" duration="465.00" routeLength="1879.15" waitingTime="301.00" waitingCount="2" stopTime="0.00" timeLoss="320.76" rerouteNo="0" devices="tripinfo_17" vType="DEFAULT_VEHTYPE" speedFactor="0.94" vaporized=""/>
    <tripinfo id="24" depart="436.00" departLane="WB2four-arm_0" departPos="5.10" departSpeed="12.31" departDelay="-0.43" arrival="630.00" arrivalLane="incoming2EB_1" arrivalPos="304.25" arrivalSpeed="12.05" duration="194.00" routeLength="1879.15" waitingTime="22.00" waitingCount="2" stopTime="0.00" timeLoss="41.16" rerouteNo="0" devices="tripinfo_24" vType="DEFAULT_VEHTYPE" speedFactor="0.89" vaporized=""/>
    <tripinfo id="37" depart="557.00" departLane="WB2four-arm_0" departPos="5.10" departSpeed="11.90" departDelay="-0.09" arrival="678.00" arrivalLane="four-arm2NWB_0" arrivalPos="313.79" arrivalSpeed="11.51" duration="121.00" routeLength="1087.89" waitingTime="18.00" waitingCount="1" stopTime="0.00" timeLoss="28.47" rerouteNo="0" devices="tripinfo_37" vType="DEFAULT_VEHTYPE" speedFactor="0.86" vaporized=""/>
    <tripinfo id="7" depart="401.00" departLane="EB2incoming_0" departPos="5.10" departSpeed="14.31" departDelay="-0.49" arrival="736.00" arrivalLane="four-arm2WB_0" arrivalPos="759.55" arrivalSpeed="13.93" duration="335.00" routeLength="1879.20" waitingTime="187.00" waitingCount="2" stopTime="0.00" timeLoss="202.93" rerouteNo="0" devices="tripinfo_7" vType="DEFAULT_VEHTYPE" speedFactor="1.03" vaporized=""/>
    <tripinfo id="13" depart="666.00" departLane="SEB2T_0" departPos="5.10" departSpeed="15.15" departDelay="-0.67" arrival="933.00" arrivalLane="four-arm2WB_0" arrivalPos="759.55" arrivalSpeed="14.50" duration="267.00" routeLength="2184.27" waitingTime="101.00" waitingCount="2" stopTime="0.00" timeLoss="121.11" rerouteNo="0" devices="tripinfo_13" vType="DEFAULT_VEHTYPE" speedFactor="1.09" vaporized=""/>
    <tripinfo id="25" depart="785.00" departLane="WB2four-arm_1" departPos="5.10" departSpeed="15.60" departDelay="-0.27" arrival="938.00" arrivalLane="T2SEB_0" arrivalPos="296.94" arrivalSpeed="14.63" duration="153.00" routeLength="2221.49" waitingTime="0.00" waitingCount="0" stopTime="0.00" timeLoss="8.83" rerouteNo="0" devices="tripinfo_25" vType="DEFAULT_VEHTYPE" speedFactor="1.12" vaporized=""/>
    <tripinfo id="1" depart="476.00" departLane="NEB2incoming_0" departPos="5.10" departSpeed="13.03" departDelay="-0.94" arrival="943.00" arrivalLane="four-arm2WB_0" arrivalPos="759.55" arrivalSpeed="12.90" duration="467.00" routeLength="1882.71" waitingTime="306.00" waitingCount="2" stopTime="0.00" timeLoss="322.59" rerouteNo="0" devices="tripinfo_1" vType="DEFAULT_VEHTYPE" speedFactor="0.94" vaporized=""/>
    <tripinfo id="38" depart="833.00" departLane="WB2four-arm_1" departPos="5.10" departSpeed="12.87" departDelay="-0.34" arrival="956.00" arrivalLane="four-arm2NWB_0" arrivalPos="313.79" arrivalSpeed="12.79" duration="123.00" routeLength="1087.89" waitingTime="29.00" waitingCount="1" stopTime="0.00" timeLoss="37.38" rerouteNo="0" devices="tripinfo_38" vType="DEFAULT_VEHTYPE" speedFactor="0.93" vaporized=""/>
    <tripinfo id="51" depart="1034.00" departLane="NWB2four-arm_0" departPos="5.10" departSpeed="16.09" departDelay="-0.54" arrival="1107.00" arrivalLane="four-arm2WB_0" arrivalPos="759.55" arrivalSpeed="15.34" duration="73.00" routeLength="1077.79" waitingTime="0.00" waitingCount="0" stopTime="0.00" timeLoss="5.55" rerouteNo="0" devices="tripinfo_51" vType="DEFAULT_VEHTYPE" speedFactor="1.16" vaporized=""/>
    <tripinfo id="3" depart="754.00" departLane="NEB2incoming_1" departPos="5.10" departSpeed="14.54" departDelay="-0.69" arrival="1135.00" arrivalLane="four-arm2WB_0" arrivalPos="759.55" arrivalSpeed="14.37" duration="381.00" routeLength="1891.91" waitingTime="229.00" waitingCount="3" stopTime="0.00" timeLoss="249.75" rerouteNo="0" devices="tripinfo_3" vType="DEFAULT_VEHTYPE" speedFactor="1.05" vaporized=""/>
    <tripinfo id="15" depart="724.00" departLane="WB2four-arm_0" departPos="5.10" departSpeed="14.26" departDelay="-0.95" arrival="1182.00" arrivalLane="incoming2EB_0" arrivalPos="304.25" arrivalSpeed="13.56" duration="458.00" routeLength="1858.30" waitingTime="313.00" waitingCount="2" stopTime="0.00" timeLoss="328.04" rerouteNo="0" devices="tripinfo_15" vType="DEFAULT_VEHTYPE" speedFactor="1.03" vaporized=""/>
    <tripinfo id="59" depart="997.00" departLane="NWB2four-arm_0" departPos="5.10" departSpeed="13.00" departDelay="-0.76" arrival="1229.00" arrivalLane="incoming2EB_1" arrivalPos="304.25" arrivalSpeed="11.71" duration="232.00" routeLength="1431.93" waitingTime="103.00" waitingCount="3" stopTime="0.00" timeLoss="120.50" rerouteNo="0" devices="tripinfo_59" vType="DEFAULT_VEHTYPE" speedFactor="0.94" vaporized=""/>
    <tripinfo id="22" depart="842.00" departLane="WB2four-arm_1" departPos="5.10" departSpeed="12.20" departDelay="-0.52" arrival="1230.00" arrivalLane="incoming2EB_0" arrivalPos="304.25" arrivalSpeed="11.92" duration="388.00" routeLength="1879.15" waitingTime="214.00" waitingCount="2" stopTime="0.00" timeLoss="233.45" rerouteNo="0" devices="tripinfo_22" vType="DEFAULT_VEHTYPE" speedFactor="0.88" vaporized=""/>
    <tripinfo id="55" depart="891.00" departLane="NWB2four-arm_0" departPos="5.10" departSpeed="13.08" departDelay="-0.90" arrival="1231.00" arrivalLane="incoming2EB_1" arrivalPos="304.25" arrivalSpeed="12.07" duration="340.00" routeLength="1431.93" waitingTime="213.00" waitingCount="2" stopTime="0.00" timeLoss="229.12" rerouteNo="0" devices="tripinfo_55" vType="DEFAULT_VEHTYPE" speedFactor="0.94" vaporized=""/>
    <tripinfo id="52" depart="1130.00" departLane="NWB2four-arm_0" departPos="5.10" departSpeed="14.14" departDelay="-0.77" arrival="1236.00" arrivalLane="four-arm2WB_0" arrivalPos="759.55" arrivalSpeed="13.01" duration="106.00" routeLength="1077.79" waitingTime="19.00" waitingCount="1" stopTime="0.00" timeLoss="28.66" rerouteNo="0" devices="tripinfo_52" vType="DEFAULT_VEHTYPE" speedFactor="1.02" vaporized=""/>
    <tripinfo id="8" depart="819.00" departLane="EB2incoming_0" departPos="5.10" departSpeed="13.77" departDelay="-0.88" arrival="1298.00" arrivalLane="four-arm2WB_0" arrivalPos="759.55" arrivalSpeed="13.49" duration="479.00" routeLength="1858.27" waitingTime="327.00" waitingCount="2" stopTime="0.00" timeLoss="344.13" rerouteNo="0" devices="tripinfo_8" vType="DEFAULT_VEHTYPE" speedFactor="0.99" vaporized=""/>
    <tripinfo id="58" depart="1184.00" departLane="NWB2four-arm_0" departPos="5.10" departSpeed="14.03" departDelay="-0.71" arrival="1313.00" arrivalLane="incoming2EB_0" arrivalPos="304.25" arrivalSpeed="12.81" duration="129.00" routeLength="1431.93" waitingTime="14.00" waitingCount="1" stopTime="0.00" timeLoss="25.77" rerouteNo="0" devices="tripinfo_58" vType="DEFAULT_VEHTYPE" speedFactor="1.01" vaporized=""/>
    <tripinfo id="33" depart="1302.00" departLane="WB2four-arm_0" departPos="5.10" departSpeed="11.47" departDelay="-0.21" arrival="1535.00" arrivalLane="T2SEB_0" arrivalPos="296.94" arrivalSpeed="11.33" duration="233.00" routeLength="2221.49" waitingTime="22.00" waitingCount="1" stopTime="0.00" timeLoss="37.40" rerouteNo="0" devices="tripinfo_33" vType="DEFAULT_VEHTYPE" speedFactor="0.83" vaporized=""/>
    <tripinfo id="12" depart="1372.00" departLane="SEB2T_0" departPos="5.10" departSpeed="12.12" departDelay="-0.68" arrival="1586.00" arrivalLane="four-arm2WB_0" arrivalPos="759.55" arrivalSpeed="11.69" duration="214.00" routeLength="2184.27" waitingTime="14.00" waitingCount="1" stopTime="0.00" timeLoss="31.88" rerouteNo="0" devices="tripinfo_12" vType="DEFAULT_VEHTYPE" speedFactor="0.87" vaporized=""/>
    <tripinfo id="62" depart="1238.00" departLane="NWB2four-arm_0" departPos="5.10" departSpeed="13.54" departDelay="-0.90" arrival="1658.00" arrivalLane="incoming2EB_0" arrivalPos="304.25" arrivalSpeed="12.48" duration="420.00" routeLength="1411.08" waitingTime="301.00" waitingCount="1" stopTime="0.00" timeLoss="315.30" rerouteNo="0" devices="tripinfo_62" vType="DEFAULT_VEHTYPE" speedFactor="0.98" vaporized=""/>
    <tripinfo id="5" depart="1283.00" departLane="EB2incoming_0" departPos="5.10" departSpeed="12.36" departDelay="-0.82" arrival="1744.00" arrivalLane="four-arm2WB_0" arrivalPos="759.55" arrivalSpeed="11.71" duration="461.00" routeLength="1858.27" waitingTime="301.00" waitingCount="1" stopTime="0.00" timeLoss="310.45" rerouteNo="0" devices="tripinfo_5" vType="DEFAULT_VEHTYPE" speedFactor="0.89" vaporized=""/>
    <tripinfo id="53" depart="1669.00" departLane="NWB2four-arm_0" departPos="5.10" departSpeed="13.18" departDelay="-0.56" arrival="1759.00" arrivalLane="four-arm2WB_0" arrivalPos="759.55" arrivalSpeed="12.60" duration="90.00" routeLength="1077.79" waitingTime="0.00" waitingCount="0" stopTime="0.00" timeLoss="7.12" rerouteNo="0" devices="tripinfo_53" vType="DEFAULT_VEHTYPE" speedFactor="0.95" vaporized=""/>
    <tripinfo id="20" depart="1651.00" departLane="WB2four-arm_0" departPos="5.10" departSpeed="12.74" departDelay="-0.42" arrival="1829.00" arrivalLane="incoming2EB_0" arrivalPos="304.25" arrivalSpeed="12.51" duration="178.00" routeLength="1879.15" waitingTime="12.00" waitingCount="1" stopTime="0.00" timeLoss="30.44" rerouteNo="0" devices="tripinfo_20" vType="DEFAULT_VEHTYPE" speedFactor="0.92" vaporized=""/>
    <tripinfo id="42" depart="1762.00" departLane="WB2four-arm_1" departPos="5.10" departSpeed="12.94" departDelay="-0.81" arrival="1876.00" arrivalLane="four-arm2NWB_0" arrivalPos="313.79" arrivalSpeed="12.17" duration="114.00" routeLength="1087.89" waitingTime="18.00" waitingCount="1" stopTime="0.00" timeLoss="28.52" rerouteNo="0" devices="tripinfo_42" vType="DEFAULT_VEHTYPE" speedFactor="0.93" vaporized=""/>
    <tripinfo id="45" depart="1822.00" departLane="NWB2four-arm_0" departPos="5.10" departSpeed="16.37" departDelay="-0.07" arrival="1909.00" arrivalLane="four-arm2WB_0" arrivalPos="759.55" arrivalSpeed="16.07" duration="87.00" routeLength="1077.79" waitingTime="11.00" waitingCount="1" stopTime="0.00" timeLoss="19.64" rerouteNo="0" devices="tripinfo_45" vType="DEFAULT_VEHTYPE" speedFactor="1.18" vaporized=""/>
    <tripinfo id="26" depart="1752.00" departLane="WB2four-arm_0" departPos="5.10" departSpeed="15.72" departDelay="-0.65" arrival="1937.00" arrivalLane="T2SEB_0" arrivalPos="296.94" arrivalSpeed="14.99" duration="185.00" routeLength="2221.49" waitingTime="30.00" waitingCount="1" stopTime="0.00" timeLoss="42.30" rerouteNo="0" devices="tripinfo_26" vType="DEFAULT_VEHTYPE" speedFactor="1.13" vaporized=""/>
    <tripinfo id="54" depart="1972.00" departLane="NWB2four-arm_0" departPos="5.10" departSpeed="13.82" departDelay="-0.95" arrival="2077.00" arrivalLane="four-arm2WB_0" arrivalPos="759.55" arrivalSpeed="13.06" duration="105.00" routeLength="1077.79" waitingTime="18.00" waitingCount="1" stopTime="0.00" timeLoss="25.82" rerouteNo="0" devices="tripinfo_54" vType="DEFAULT_VEHTYPE" speedFactor="0.99" vaporized=""/>
    <tripinfo id="43" depart="2104.00" departLane="WB2four-arm_0" departPos="5.10" departSpeed="13.52" departDelay="-0.54" arrival="2194.00" arrivalLane="four-arm2NWB_0" arrivalPos="313.79" arrivalSpeed="13.17" duration="90.00" routeLength="1087.89" waitingTime="0.00" waitingCount="0" stopTime="0.00" timeLoss="8.74" rerouteNo="0" devices="tripinfo_43" vType="DEFAULT_VEHTYPE" speedFactor="0.97" vaporized=""/>
    <tripinfo id="10" depart="2015.00" departLane="SEB2T_0" departPos="5.10" departSpeed="14.16" departDelay="-0.92" arrival="2216.00" arrivalLane="four-arm2WB_0" arrivalPos="759.55" arrivalSpeed="12.97" duration="201.00" routeLength="2184.27" waitingTime="30.00" waitingCount="1" stopTime="0.00" timeLoss="45.35" rerouteNo="0" devices="tripinfo_10" vType="DEFAULT_VEHTYPE" speedFactor="1.02" vaporized=""/>
    <tripinfo id="41" depart="2138.00" departLane="WB2four-arm_0" departPos="5.10" departSpeed="15.31" departDelay="-0.70" arrival="2231.00" arrivalLane="four-arm2NWB_1" arrivalPos="313.79" arrivalSpeed="14.42" duration="93.00" routeLength="1087.89" waitingTime="14.00" waitingCount="1" stopTime="0.00" timeLoss="21.54" rerouteNo="0" devices="tripinfo_41" vType="DEFAULT_VEHTYPE" speedFactor="1.10" vaporized=""/>
    <tripinfo id="2" depart="1847.00" departLane="NEB2incoming_0" departPos="5.10" departSpeed="16.04" departDelay="-0.70" arrival="2290.00" arrivalLane="four-arm2WB_0" arrivalPos="759.55" arrivalSpeed="15.49" duration="443.00" routeLength="1882.71" waitingTime="311.00" waitingCount="2" stopTime="0.00" timeLoss="325.71" rerouteNo="0" devices="tripinfo_2" vType="DEFAULT_VEHTYPE" speedFactor="1.15" vaporized=""/>
    <tripinfo id="28" depart="2116.00" departLane="WB2four-arm_1" departPos="5.10" departSpeed="16.39" departDelay="-0.75" arrival="2294.00" arrivalLane="T2SEB_0" arrivalPos="296.94" arrivalSpeed="16.30" duration="178.00" routeLength="2221.49" waitingTime="28.00" waitingCount="1" stopTime="0.00" timeLoss="40.45" rerouteNo="0" devices="tripinfo_28" vType="DEFAULT_VEHTYPE" speedFactor="1.18" vaporized=""/>
    <tripinfo id="16" depart="1848.00" departLane="WB2four-arm_0" departPos="5.10" departSpeed="13.96" departDelay="-0.48" arrival="2305.00" arrivalLane="incoming2EB_0" arrivalPos="304.25" arrivalSpeed="13.28" duration="457.00" routeLength="1858.30" waitingTime="309.00" waitingCount="2" stopTime="0.00" timeLoss="323.72" rerouteNo="0" devices="tripinfo_16" vType="DEFAULT_VEHTYPE" speedFactor="1.01" vaporized=""/>
    <tripinfo id="44" depart="2198.00" departLane="WB2four-arm_0" departPos="5.10" departSpeed="14.31" departDelay="-0.82" arrival="2313.00" arrivalLane="four-arm2NWB_1" arrivalPos="313.79" arrivalSpeed="14.25" duration="115.00" routeLength="1087.89" waitingTime="29.00" waitingCount="1" stopTime="0.00" timeLoss="38.29" rerouteNo="0" devices="tripinfo_44" vType="DEFAULT_VEHTYPE" speedFactor="1.03" vaporized=""/>
    <tripinfo id="32" depart="2169.00" departLane="WB2four-arm_0" departPos="5.10" departSpeed="12.51" departDelay="-0.75" arrival="2368.00" arrivalLane="T2SEB_0" arrivalPos="296.94" arrivalSpeed="11.45" duration="199.00" routeLength="2221.49" waitingTime="1.00" waitingCount="1" stopTime="0.00" timeLoss="19.70" rerouteNo="0" devices="tripinfo_32" vType="DEFAULT_VEHTYPE" speedFactor="0.90" vaporized=""/>
    <tripinfo id="23" depart="1943.00" departLane="WB2four-arm_0" departPos="5.10" departSpeed="16.28" departDelay="-0.63" arrival="2374.00" arrivalLane="incoming2EB_0" arrivalPos="304.25" arrivalSpeed="15.60" duration="431.00" routeLength="1858.30" waitingTime="303.00" waitingCount="2" stopTime="0.00" timeLoss="316.50" rerouteNo="0" devices="tripinfo_23" vType="DEFAULT_VEHTYPE" speedFactor="1.17" vaporized=""/>
    <tripinfo id="56" depart="2252.00" departLane="NWB2four-arm_0" departPos="5.10" departSpeed="14.41" departDelay="-0.80" arrival="2426.00" arrivalLane="incoming2EB_0" arrivalPos="304.25" arrivalSpeed="13.82" duration="174.00" routeLength="1431.93" waitingTime="60.00" waitingCount="2" stopTime="0.00" timeLoss="73.73" rerouteNo="0" devices="tripinfo_56" vType="DEFAULT_VEHTYPE" speedFactor="1.04" vaporized=""/>
    <tripinfo id="18" depart="2239.00" departLane="WB2four-arm_0" departPos="5.10" departSpeed="13.29" departDelay="-0.54" arrival="2428.00" arrivalLane="incoming2EB_0" arrivalPos="304.25" arrivalSpeed="12.79" duration="189.00" routeLength="1879.15" waitingTime="28.00" waitingCount="2" stopTime="0.00" timeLoss="47.26" rerouteNo="0" devices="tripinfo_18" vType="DEFAULT_VEHTYPE" speedFactor="0.96" vaporized=""/>
    <tripinfo id="34" depart="2279.00" departLane="WB2four-arm_0" departPos="5.10" departSpeed="14.49" departDelay="-0.74" arrival="2466.00" arrivalLane="T2SEB_0" arrivalPos="296.94" arrivalSpeed="14.16" duration="187.00" routeLength="2221.49" waitingTime="19.00" waitingCount="1" stopTime="0.00" timeLoss="32.00" rerouteNo="0" devices="tripinfo_34" vType="DEFAULT_VEHTYPE" speedFactor="1.04" vaporized=""/>
    <tripinfo id="39" depart="2359.00" departLane="WB2four-arm_1" departPos="5.10" departSpeed="12.18" departDelay="-0.25" arrival="2478.00" arrivalLane="four-arm2NWB_0" arrivalPos="313.79" arrivalSpeed="11.16" duration="119.00" routeLength="1087.89" waitingTime="18.00" waitingCount="1" stopTime="0.00" timeLoss="28.26" rerouteNo="0" devices="tripinfo_39" vType="DEFAULT_VEHTYPE" speedFactor="0.88" vaporized=""/>
    <tripinfo id="61" depart="2341.00" departLane="NWB2four-arm_0" departPos="5.10" departSpeed="12.51" departDelay="-0.13" arrival="2484.00" arrivalLane="incoming2EB_0" arrivalPos="304.25" arrivalSpeed="12.43" duration="143.00" routeLength="1431.93" waitingTime="16.00" waitingCount="1" stopTime="0.00" timeLoss="27.09" rerouteNo="0" devices="tripinfo_61" vType="DEFAULT_VEHTYPE" speedFactor="0.90" vaporized=""/>
    <tripinfo id="27" depart="2313.00" departLane="WB2four-arm_1" departPos="5.10" departSpeed="13.85" departDelay="-0.26" arrival="2511.00" arrivalLane="T2SEB_0" arrivalPos="296.94" arrivalSpeed="13.50" duration="198.00" routeLength="2221.49" waitingTime="22.00" waitingCount="1" stopTime="0.00" timeLoss="36.15" rerouteNo="0" devices="tripinfo_27" vType="DEFAULT_VEHTYPE" speedFactor="1.00" vaporized=""/>
    <tripinfo id="9" depart="2300.00" departLane="EB2incoming_0" departPos="5.10" departSpeed="15.11" departDelay="-0.46" arrival="2532.00" arrivalLane="four-arm2WB_0" arrivalPos="759.55" arrivalSpeed="14.75" duration="232.00" routeLength="1879.20" waitingTime="90.00" waitingCount="2" stopTime="0.00" timeLoss="107.65" rerouteNo="0" devices="tripinfo_9" vType="DEFAULT_VEHTYPE" speedFactor="1.09" vaporized=""/>
    <tripinfo id="35" depart="2587.00" departLane="WB2four-arm_0" departPos="5.10" departSpeed="15.22" departDelay="-0.01" arrival="2672.00" arrivalLane="four-arm2NWB_1" arrivalPos="313.79" arrivalSpeed="15.06" duration="85.00" routeLength="1087.89" waitingTime="4.00" waitingCount="1" stopTime="0.00" timeLoss="12.42" rerouteNo="0" devices="tripinfo_35" vType="DEFAULT_VEHTYPE" speedFactor="1.10" vaporized=""/>
    <tripinfo id="14" depart="2248.00" departLane="SEB2T_0" departPos="5.10" departSpeed="15.17" departDelay="-0.33" arrival="2733.00" arrivalLane="four-arm2WB_0" arrivalPos="759.55" arrivalSpeed="14.88" duration="485.00" routeLength="2164.75" waitingTime="324.00" waitingCount="2" stopTime="0.00" timeLoss="341.54" rerouteNo="0" devices="tripinfo_14" vType="DEFAULT_VEHTYPE" speedFactor="1.09" vaporized=""/>
    <tripinfo id="63" depart="2442.00" departLane="NWB2four-arm_0" departPos="5.10" departSpeed="11.87" departDelay="-0.60" arrival="2872.00" arrivalLane="incoming2EB_0" arrivalPos="304.25" arrivalSpeed="11.58" duration="430.00" routeLength="1411.08" waitingTime="301.00" waitingCount="1" stopTime="0.00" timeLoss="310.40" rerouteNo="0" devices="tripinfo_63" vType="DEFAULT_VEHTYPE" speedFactor="0.85" vaporized=""/>
    <tripinfo id="48" depart="2807.00" departLane="NWB2four-arm_0" departPos="5.10" departSpeed="13.93" departDelay="-0.46" arrival="2916.00" arrivalLane="four-arm2WB_0" arrivalPos="759.55" arrivalSpeed="13.77" duration="109.00" routeLength="1077.79" waitingTime="22.00" waitingCount="1" stopTime="0.00" timeLoss="31.12" rerouteNo="0" devices="tripinfo_48" vType="DEFAULT_VEHTYPE" speedFactor="1.00" vaporized=""/>
    <tripinfo id="19" depart="2436.00" departLane="WB2four-arm_0" departPos="5.10" departSpeed="11.81" departDelay="-0.32" arrival="2920.00" arrivalLane="incoming2EB_0" arrivalPos="304.25" arrivalSpeed="11.12" duration="484.00" routeLength="1858.30" waitingTime="308.00" waitingCount="2" stopTime="0.00" timeLoss="327.13" rerouteNo="0" devices="tripinfo_19" vType="DEFAULT_VEHTYPE" speedFactor="0.85" vaporized=""/>
    <tripinfo id="0" depart="2488.00" departLane="NEB2incoming_0" departPos="5.10" departSpeed="16.24" departDelay="-0.08" arrival="2929.00" arrivalLane="four-arm2WB_0" arrivalPos="759.55" arrivalSpeed="15.04" duration="441.00" routeLength="1891.91" waitingTime="304.00" waitingCount="2" stopTime="0.00" timeLoss="324.09" rerouteNo="0" devices="tripinfo_0" vType="DEFAULT_VEHTYPE" speedFactor="1.17" vaporized=""/>
    <tripinfo id="36" depart="2896.00" departLane="WB2four-arm_0" departPos="5.10" departSpeed="12.49" departDelay="-0.69" arrival="2997.00" arrivalLane="four-arm2NWB_0" arrivalPos="313.79" arrivalSpeed="11.59" duration="101.00" routeLength="1087.89" waitingTime="3.00" waitingCount="1" stopTime="0.00" timeLoss="12.70" rerouteNo="0" devices="tripinfo_36" vType="DEFAULT_VEHTYPE" speedFactor="0.90" vaporized=""/>
    <tripinfo id="60" depart="2573.00" departLane="NWB2four-arm_0" departPos="5.10" departSpeed="14.12" departDelay="-0.19" arrival="3027.00" arrivalLane="incoming2EB_0" arrivalPos="304.25" arrivalSpeed="14.04" duration="454.00" routeLength="1431.93" waitingTime="333.00" waitingCount="3" stopTime="0.00" timeLoss="351.14" rerouteNo="0" devices="tripinfo_60" vType="DEFAULT_VEHTYPE" speedFactor="1.02" vaporized=""/>
    <tripinfo id="6" depart="2852.00" departLane="EB2incoming_0" departPos="5.10" departSpeed="13.83" departDelay="-0.53" arrival="3138.00" arrivalLane="four-arm2WB_0" arrivalPos="759.55" arrivalSpeed="13.14" duration="286.00" routeLength="1879.20" waitingTime="131.00" waitingCount="2" stopTime="0.00" timeLoss="149.31" rerouteNo="0" devices="tripinfo_6" vType="DEFAULT_VEHTYPE" speedFactor="1.00" vaporized=""/>
    <tripinfo id="29" depart="3001.00" departLane="WB2four-arm_0" departPos="5.10" departSpeed="13.47" departDelay="-0.37" arrival="3195.00" arrivalLane="T2SEB_0" arrivalPos="296.94" arrivalSpeed="12.86" duration="194.00" routeLength="2221.49" waitingTime="12.00" waitingCount="1" stopTime="0.00" timeLoss="27.29" rerouteNo="0" devices="tripinfo_29" vType="DEFAULT_VEHTYPE" speedFactor="0.97" vaporized=""/>
    <tripinfo id="11" depart="2901.00" departLane="SEB2T_0" departPos="5.10" departSpeed="15.87" departDelay="-0.62" arrival="3331.00" arrivalLane="four-arm2WB_0" arrivalPos="759.55" arrivalSpeed="15.43" duration="430.00" routeLength="2184.27" waitingTime="270.00" waitingCount="2" stopTime="0.00" timeLoss="290.57" rerouteNo="0" devices="tripinfo_11" vType="DEFAULT_VEHTYPE" speedFactor="1.14" vaporized=""/>
    <tripinfo id="4" depart="2950.00" departLane="NEB2incoming_0" departPos="5.10" departSpeed="14.22" departDelay="-0.16" arrival="3416.00" arrivalLane="four-arm2WB_0" arrivalPos="759.55" arrivalSpeed="13.58" duration="466.00" routeLength="1882.71" waitingTime="321.00" waitingCount="2" stopTime="0.00" timeLoss="333.81" rerouteNo="0" devices="tripinfo_4" vType="DEFAULT_VEHTYPE" speedFactor="1.02" vaporized=""/>
    <tripinfo id="50" depart="3425.00" departLane="NWB2four-arm_0" departPos="5.10" departSpeed="13.71" departDelay="-0.09" arrival="3517.00" arrivalLane="four-arm2WB_0" arrivalPos="759.55" arrivalSpeed="13.48" duration="92.00" routeLength="1077.79" waitingTime="5.00" waitingCount="1" stopTime="0.00" timeLoss="12.56" rerouteNo="0" devices="tripinfo_50" vType="DEFAULT_VEHTYPE" speedFactor="0.99" vaporized=""/>
    <tripinfo id="30" depart="3363.00" departLane="WB2four-arm_0" departPos="5.10" departSpeed="14.11" departDelay="-0.45" arrival="3550.00" arrivalLane="T2SEB_0" arrivalPos="296.94" arrivalSpeed="13.36" duration="187.00" routeLength="2221.49" waitingTime="14.00" waitingCount="1" stopTime="0.00" timeLoss="27.59" rerouteNo="0" devices="tripinfo_30" vType="DEFAULT_VEHTYPE" speedFactor="1.02" vaporized=""/>
    <tripinfo id="21" depart="3181.00" departLane="WB2four-arm_0" departPos="5.10" departSpeed="15.04" departDelay="-0.59" arrival="3617.00" arrivalLane="incoming2EB_0" arrivalPos="304.25" arrivalSpeed="14.42" duration="436.00" routeLength="1858.30" waitingTime="301.00" waitingCount="1" stopTime="0.00" timeLoss="312.49" rerouteNo="0" devices="tripinfo_21" vType="DEFAULT_VEHTYPE" speedFactor="1.08" vaporized=""/>
    <tripinfo id="64" depart="3225.00" departLane="NWB2four-arm_0" departPos="5.10" departSpeed="15.55" departDelay="-0.98" arrival="3624.00" arrivalLane="incoming2EB_0" arrivalPos="304.25" arrivalSpeed="14.66" duration="399.00" routeLength="1431.93" waitingTime="292.00" waitingCount="2" stopTime="0.00" timeLoss="306.20" rerouteNo="0" devices="tripinfo_64" vType="DEFAULT_VEHTYPE" speedFactor="1.12" vaporized=""/>
    <tripinfo id="49" depart="3573.00" departLane="NWB2four-arm_0" departPos="5.10" departSpeed="13.02" departDelay="-0.33" arrival="3681.00" arrivalLane="four-arm2WB_0" arrivalPos="759.55" arrivalSpeed="12.15" duration="108.00" routeLength="1077.79" waitingTime="14.00" waitingCount="1" stopTime="0.00" timeLoss="23.71" rerouteNo="0" devices="tripinfo_49" vType="DEFAULT_VEHTYPE" speedFactor="0.94" vaporized=""/>
</tripinfos>
