<?xml version="1.0" encoding="UTF-8"?>

<!-- generated on 12/02/19 16:56:55 by Eclipse SUMO GUI Version 1.3.1
<configuration xmlns:xsi="http://www.w3.org/2001/XMLSchema-instance" xsi:noNamespaceSchemaLocation="http://sumo.dlr.de/xsd/sumoConfiguration.xsd">

    <input>
        <net-file value="simpleNetwork.net.xml"/>
        <route-files value="od_route_file.odtrips.rou.xml"/>
    </input>

    <output>
        <tripinfo-output value="tripinfo.xml"/>
    </output>

    <time>
        <begin value="0"/>
        <end value="2000"/>
    </time>

    <traci_server>
        <remote-port value="50191"/>
    </traci_server>

</configuration>
-->

<tripinfos xmlns:xsi="http://www.w3.org/2001/XMLSchema-instance" xsi:noNamespaceSchemaLocation="http://sumo.dlr.de/xsd/tripinfo_file.xsd">
    <tripinfo id="57" depart="27.00" departLane="NWB2four-arm_LTL_0" departPos="5.10" departSpeed="14.72" departDelay="-0.48" arrival="419.00" arrivalLane="incoming2EB_0" arrivalPos="304.25" arrivalSpeed="14.04" duration="392.00" routeLength="1431.94" waitingTime="284.00" waitingCount="1" stopTime="0.00" timeLoss="293.62" rerouteNo="0" devices="tripinfo_57" vType="DEFAULT_VEHTYPE" speedFactor="1.06" vaporized=""/>
    <tripinfo id="17" depart="163.00" departLane="WB2four-arm_LTL_0" departPos="5.10" departSpeed="13.03" departDelay="-0.02" arrival="539.00" arrivalLane="incoming2EB_0" arrivalPos="304.25" arrivalSpeed="12.90" duration="376.00" routeLength="1879.16" waitingTime="213.00" waitingCount="1" stopTime="0.00" timeLoss="231.22" rerouteNo="0" devices="tripinfo_17" vType="DEFAULT_VEHTYPE" speedFactor="0.94" vaporized=""/>
    <tripinfo id="7" depart="401.00" departLane="EB2incoming_0" departPos="5.10" departSpeed="14.31" departDelay="-0.49" arrival="544.00" arrivalLane="four-arm2WB_0" arrivalPos="759.55" arrivalSpeed="13.93" duration="143.00" routeLength="1879.21" waitingTime="0.00" waitingCount="0" stopTime="0.00" timeLoss="11.50" rerouteNo="0" devices="tripinfo_7" vType="DEFAULT_VEHTYPE" speedFactor="1.03" vaporized=""/>
    <tripinfo id="40" depart="410.00" departLane="WB2four-arm_LTL_1" departPos="5.10" departSpeed="11.54" departDelay="-0.68" arrival="579.00" arrivalLane="four-arm2NWB_0" arrivalPos="313.79" arrivalSpeed="11.34" duration="169.00" routeLength="1087.89" waitingTime="63.00" waitingCount="1" stopTime="0.00" timeLoss="73.65" rerouteNo="0" devices="tripinfo_40" vType="DEFAULT_VEHTYPE" speedFactor="0.83" vaporized=""/>
    <tripinfo id="31" depart="423.00" departLane="WB2four-arm_LTL_1" departPos="5.10" departSpeed="14.53" departDelay="-0.68" arrival="587.00" arrivalLane="T2SEB_0" arrivalPos="296.94" arrivalSpeed="13.78" duration="164.00" routeLength="2221.49" waitingTime="0.00" waitingCount="0" stopTime="0.00" timeLoss="9.85" rerouteNo="0" devices="tripinfo_31" vType="DEFAULT_VEHTYPE" speedFactor="1.05" vaporized=""/>
    <tripinfo id="24" depart="436.00" departLane="WB2four-arm_LTL_1" departPos="5.10" departSpeed="12.31" departDelay="-0.43" arrival="598.00" arrivalLane="incoming2EB_0" arrivalPos="304.25" arrivalSpeed="11.86" duration="162.00" routeLength="1879.16" waitingTime="0.00" waitingCount="0" stopTime="0.00" timeLoss="8.51" rerouteNo="0" devices="tripinfo_24" vType="DEFAULT_VEHTYPE" speedFactor="0.89" vaporized=""/>
    <tripinfo id="37" depart="557.00" departLane="WB2four-arm_LTL_0" departPos="5.10" departSpeed="11.90" departDelay="-0.09" arrival="656.00" arrivalLane="four-arm2NWB_0" arrivalPos="313.79" arrivalSpeed="10.70" duration="99.00" routeLength="1087.89" waitingTime="0.00" waitingCount="0" stopTime="0.00" timeLoss="6.35" rerouteNo="0" devices="tripinfo_37" vType="DEFAULT_VEHTYPE" speedFactor="0.86" vaporized=""/>
    <tripinfo id="47" depart="363.00" departLane="NWB2four-arm_LTL_1" departPos="5.10" departSpeed="15.04" departDelay="-0.29" arrival="710.00" arrivalLane="four-arm2WB_1" arrivalPos="759.55" arrivalSpeed="14.80" duration="347.00" routeLength="1077.79" waitingTime="264.00" waitingCount="1" stopTime="0.00" timeLoss="274.66" rerouteNo="0" devices="tripinfo_47" vType="DEFAULT_VEHTYPE" speedFactor="1.08" vaporized=""/>
    <tripinfo id="46" depart="353.00" departLane="NWB2four-arm_LTL_0" departPos="5.10" departSpeed="14.03" departDelay="-0.09" arrival="711.00" arrivalLane="four-arm2WB_0" arrivalPos="759.55" arrivalSpeed="13.47" duration="358.00" routeLength="1077.79" waitingTime="272.00" waitingCount="1" stopTime="0.00" timeLoss="280.22" rerouteNo="0" devices="tripinfo_46" vType="DEFAULT_VEHTYPE" speedFactor="1.01" vaporized=""/>
    <tripinfo id="55" depart="891.00" departLane="NWB2four-arm_LTL_0" departPos="5.10" departSpeed="13.08" departDelay="-0.90" arrival="1009.00" arrivalLane="incoming2EB_0" arrivalPos="304.25" arrivalSpeed="12.45" duration="118.00" routeLength="1431.94" waitingTime="0.00" waitingCount="0" stopTime="0.00" timeLoss="6.88" rerouteNo="0" devices="tripinfo_55" vType="DEFAULT_VEHTYPE" speedFactor="0.94" vaporized=""/>
    <tripinfo id="13" depart="666.00" departLane="SEB2T_0" departPos="5.10" departSpeed="15.15" departDelay="-0.67" arrival="1053.00" arrivalLane="four-arm2WB_0" arrivalPos="759.55" arrivalSpeed="14.69" duration="387.00" routeLength="2184.97" waitingTime="217.00" waitingCount="3" stopTime="0.00" timeLoss="241.31" rerouteNo="0" devices="tripinfo_13" vType="DEFAULT_VEHTYPE" speedFactor="1.09" vaporized=""/>
    <tripinfo id="1" depart="476.00" departLane="NEB2incoming_LTL_0" departPos="5.10" departSpeed="13.03" departDelay="-0.94" arrival="1064.00" arrivalLane="four-arm2WB_0" arrivalPos="759.55" arrivalSpeed="12.23" duration="588.00" routeLength="1885.86" waitingTime="424.00" waitingCount="2" stopTime="0.00" timeLoss="443.06" rerouteNo="0" devices="tripinfo_1" vType="DEFAULT_VEHTYPE" speedFactor="0.94" vaporized=""/>
    <tripinfo id="15" depart="724.00" departLane="WB2four-arm_LTL_0" departPos="5.10" departSpeed="14.26" departDelay="-0.95" arrival="1080.00" arrivalLane="incoming2EB_0" arrivalPos="304.25" arrivalSpeed="13.83" duration="356.00" routeLength="1879.16" waitingTime="213.00" waitingCount="1" stopTime="0.00" timeLoss="224.16" rerouteNo="0" devices="tripinfo_15" vType="DEFAULT_VEHTYPE" speedFactor="1.03" vaporized=""/>
    <tripinfo id="25" depart="785.00" departLane="WB2four-arm_LTL_1" departPos="5.10" departSpeed="15.60" departDelay="-0.27" arrival="1101.00" arrivalLane="T2SEB_0" arrivalPos="296.94" arrivalSpeed="15.52" duration="316.00" routeLength="2221.49" waitingTime="159.00" waitingCount="1" stopTime="0.00" timeLoss="171.84" rerouteNo="0" devices="tripinfo_25" vType="DEFAULT_VEHTYPE" speedFactor="1.12" vaporized=""/>
    <tripinfo id="51" depart="1034.00" departLane="NWB2four-arm_LTL_0" departPos="5.10" departSpeed="16.09" departDelay="-0.54" arrival="1106.00" arrivalLane="four-arm2WB_0" arrivalPos="759.55" arrivalSpeed="14.98" duration="72.00" routeLength="1077.79" waitingTime="0.00" waitingCount="0" stopTime="0.00" timeLoss="4.07" rerouteNo="0" devices="tripinfo_51" vType="DEFAULT_VEHTYPE" speedFactor="1.16" vaporized=""/>
    <tripinfo id="59" depart="997.00" departLane="NWB2four-arm_LTL_0" departPos="5.10" departSpeed="13.00" departDelay="-0.76" arrival="1209.00" arrivalLane="incoming2EB_0" arrivalPos="304.25" arrivalSpeed="12.26" duration="212.00" routeLength="1431.94" waitingTime="86.00" waitingCount="2" stopTime="0.00" timeLoss="100.81" rerouteNo="0" devices="tripinfo_59" vType="DEFAULT_VEHTYPE" speedFactor="0.94" vaporized=""/>
    <tripinfo id="38" depart="833.00" departLane="WB2four-arm_LTL_1" departPos="5.10" departSpeed="12.87" departDelay="-0.34" arrival="1224.00" arrivalLane="four-arm2NWB_0" arrivalPos="313.79" arrivalSpeed="11.91" duration="391.00" routeLength="1068.24" waitingTime="301.00" waitingCount="1" stopTime="0.00" timeLoss="307.76" rerouteNo="0" devices="tripinfo_38" vType="DEFAULT_VEHTYPE" speedFactor="0.93" vaporized=""/>
    <tripinfo id="3" depart="754.00" departLane="NEB2incoming_LTL_1" departPos="5.10" departSpeed="14.54" departDelay="-0.69" arrival="1276.00" arrivalLane="four-arm2WB_0" arrivalPos="759.55" arrivalSpeed="13.87" duration="522.00" routeLength="1885.86" waitingTime="371.00" waitingCount="3" stopTime="0.00" timeLoss="392.63" rerouteNo="0" devices="tripinfo_3" vType="DEFAULT_VEHTYPE" speedFactor="1.05" vaporized=""/>
    <tripinfo id="8" depart="819.00" departLane="EB2incoming_0" departPos="5.10" departSpeed="13.77" departDelay="-0.88" arrival="1278.00" arrivalLane="four-arm2WB_0" arrivalPos="759.55" arrivalSpeed="13.54" duration="459.00" routeLength="1879.21" waitingTime="301.00" waitingCount="3" stopTime="0.00" timeLoss="322.07" rerouteNo="0" devices="tripinfo_8" vType="DEFAULT_VEHTYPE" speedFactor="0.99" vaporized=""/>
    <tripinfo id="58" depart="1184.00" departLane="NWB2four-arm_LTL_1" departPos="5.10" departSpeed="14.03" departDelay="-0.71" arrival="1293.00" arrivalLane="incoming2EB_0" arrivalPos="304.25" arrivalSpeed="12.81" duration="109.00" routeLength="1431.94" waitingTime="0.00" waitingCount="0" stopTime="0.00" timeLoss="5.47" rerouteNo="0" devices="tripinfo_58" vType="DEFAULT_VEHTYPE" speedFactor="1.01" vaporized=""/>
    <tripinfo id="22" depart="842.00" departLane="WB2four-arm_LTL_1" departPos="5.10" departSpeed="12.20" departDelay="-0.52" arrival="1316.00" arrivalLane="incoming2EB_0" arrivalPos="304.25" arrivalSpeed="11.81" duration="474.00" routeLength="1879.16" waitingTime="299.00" waitingCount="2" stopTime="0.00" timeLoss="319.48" rerouteNo="0" devices="tripinfo_22" vType="DEFAULT_VEHTYPE" speedFactor="0.88" vaporized=""/>
    <tripinfo id="52" depart="1130.00" departLane="NWB2four-arm_LTL_0" departPos="5.10" departSpeed="14.14" departDelay="-0.77" arrival="1486.00" arrivalLane="four-arm2WB_0" arrivalPos="759.55" arrivalSpeed="13.76" duration="356.00" routeLength="1077.79" waitingTime="271.00" waitingCount="1" stopTime="0.00" timeLoss="278.68" rerouteNo="0" devices="tripinfo_52" vType="DEFAULT_VEHTYPE" speedFactor="1.02" vaporized=""/>
    <tripinfo id="62" depart="1238.00" departLane="NWB2four-arm_LTL_1" departPos="5.10" departSpeed="13.54" departDelay="-0.90" arrival="1621.00" arrivalLane="incoming2EB_0" arrivalPos="304.25" arrivalSpeed="13.14" duration="383.00" routeLength="1431.94" waitingTime="265.00" waitingCount="1" stopTime="0.00" timeLoss="276.26" rerouteNo="0" devices="tripinfo_62" vType="DEFAULT_VEHTYPE" speedFactor="0.98" vaporized=""/>
    <tripinfo id="5" depart="1283.00" departLane="EB2incoming_0" departPos="5.10" departSpeed="12.36" departDelay="-0.82" arrival="1705.00" arrivalLane="four-arm2WB_0" arrivalPos="759.55" arrivalSpeed="11.76" duration="422.00" routeLength="1879.21" waitingTime="256.00" waitingCount="1" stopTime="0.00" timeLoss="269.52" rerouteNo="0" devices="tripinfo_5" vType="DEFAULT_VEHTYPE" speedFactor="0.89" vaporized=""/>
    <tripinfo id="12" depart="1372.00" departLane="SEB2T_0" departPos="5.10" departSpeed="12.12" departDelay="-0.68" arrival="1708.00" arrivalLane="four-arm2WB_0" arrivalPos="759.55" arrivalSpeed="11.89" duration="336.00" routeLength="2184.97" waitingTime="131.00" waitingCount="3" stopTime="0.00" timeLoss="154.24" rerouteNo="0" devices="tripinfo_12" vType="DEFAULT_VEHTYPE" speedFactor="0.87" vaporized=""/>
    <tripinfo id="53" depart="1669.00" departLane="NWB2four-arm_LTL_0" departPos="5.10" departSpeed="13.18" departDelay="-0.56" arrival="1758.00" arrivalLane="four-arm2WB_0" arrivalPos="759.55" arrivalSpeed="12.10" duration="89.00" routeLength="1077.79" waitingTime="0.00" waitingCount="0" stopTime="0.00" timeLoss="6.32" rerouteNo="0" devices="tripinfo_53" vType="DEFAULT_VEHTYPE" speedFactor="0.95" vaporized=""/>
    <tripinfo id="33" depart="1302.00" departLane="WB2four-arm_LTL_0" departPos="5.10" departSpeed="11.47" departDelay="-0.21" arrival="1775.00" arrivalLane="T2SEB_0" arrivalPos="296.94" arrivalSpeed="10.79" duration="473.00" routeLength="2221.49" waitingTime="260.00" waitingCount="1" stopTime="0.00" timeLoss="277.36" rerouteNo="0" devices="tripinfo_33" vType="DEFAULT_VEHTYPE" speedFactor="0.83" vaporized=""/>
    <tripinfo id="20" depart="1651.00" departLane="WB2four-arm_LTL_0" departPos="5.10" departSpeed="12.74" departDelay="-0.42" arrival="2028.00" arrivalLane="incoming2EB_1" arrivalPos="304.25" arrivalSpeed="12.45" duration="377.00" routeLength="1879.16" waitingTime="214.00" waitingCount="1" stopTime="0.00" timeLoss="229.36" rerouteNo="0" devices="tripinfo_20" vType="DEFAULT_VEHTYPE" speedFactor="0.92" vaporized=""/>
    <tripinfo id="16" depart="1848.00" departLane="WB2four-arm_LTL_1" departPos="5.10" departSpeed="13.96" departDelay="-0.48" arrival="2028.00" arrivalLane="incoming2EB_0" arrivalPos="304.25" arrivalSpeed="13.31" duration="180.00" routeLength="1879.16" waitingTime="28.00" waitingCount="2" stopTime="0.00" timeLoss="45.01" rerouteNo="0" devices="tripinfo_16" vType="DEFAULT_VEHTYPE" speedFactor="1.01" vaporized=""/>
    <tripinfo id="26" depart="1752.00" departLane="WB2four-arm_LTL_1" departPos="5.10" departSpeed="15.72" departDelay="-0.65" arrival="2035.00" arrivalLane="T2SEB_0" arrivalPos="296.94" arrivalSpeed="14.45" duration="283.00" routeLength="2221.49" waitingTime="126.00" waitingCount="1" stopTime="0.00" timeLoss="139.76" rerouteNo="0" devices="tripinfo_26" vType="DEFAULT_VEHTYPE" speedFactor="1.13" vaporized=""/>
    <tripinfo id="42" depart="1762.00" departLane="WB2four-arm_LTL_0" departPos="5.10" departSpeed="12.94" departDelay="-0.81" arrival="2065.00" arrivalLane="four-arm2NWB_0" arrivalPos="313.79" arrivalSpeed="12.44" duration="303.00" routeLength="1087.89" waitingTime="208.00" waitingCount="1" stopTime="0.00" timeLoss="217.95" rerouteNo="0" devices="tripinfo_42" vType="DEFAULT_VEHTYPE" speedFactor="0.93" vaporized=""/>
    <tripinfo id="23" depart="1943.00" departLane="WB2four-arm_LTL_0" departPos="5.10" departSpeed="16.28" departDelay="-0.63" arrival="2069.00" arrivalLane="incoming2EB_0" arrivalPos="304.25" arrivalSpeed="14.99" duration="126.00" routeLength="1879.16" waitingTime="0.00" waitingCount="0" stopTime="0.00" timeLoss="10.46" rerouteNo="0" devices="tripinfo_23" vType="DEFAULT_VEHTYPE" speedFactor="1.17" vaporized=""/>
    <tripinfo id="45" depart="1822.00" departLane="NWB2four-arm_LTL_0" departPos="5.10" departSpeed="16.37" departDelay="-0.07" arrival="2193.00" arrivalLane="four-arm2WB_0" arrivalPos="759.55" arrivalSpeed="15.65" duration="371.00" routeLength="1077.79" waitingTime="296.00" waitingCount="1" stopTime="0.00" timeLoss="304.51" rerouteNo="0" devices="tripinfo_45" vType="DEFAULT_VEHTYPE" speedFactor="1.18" vaporized=""/>
    <tripinfo id="54" depart="1972.00" departLane="NWB2four-arm_LTL_1" departPos="5.10" departSpeed="13.82" departDelay="-0.95" arrival="2205.00" arrivalLane="four-arm2WB_0" arrivalPos="759.55" arrivalSpeed="13.49" duration="233.00" routeLength="1077.79" waitingTime="144.00" waitingCount="1" stopTime="0.00" timeLoss="153.12" rerouteNo="0" devices="tripinfo_54" vType="DEFAULT_VEHTYPE" speedFactor="0.99" vaporized=""/>
    <tripinfo id="56" depart="2252.00" departLane="NWB2four-arm_LTL_0" departPos="5.10" departSpeed="14.41" departDelay="-0.80" arrival="2358.00" arrivalLane="incoming2EB_0" arrivalPos="304.25" arrivalSpeed="13.70" duration="106.00" routeLength="1431.94" waitingTime="0.00" waitingCount="0" stopTime="0.00" timeLoss="5.71" rerouteNo="0" devices="tripinfo_56" vType="DEFAULT_VEHTYPE" speedFactor="1.04" vaporized=""/>
    <tripinfo id="2" depart="1847.00" departLane="NEB2incoming_LTL_0" departPos="5.10" departSpeed="16.04" departDelay="-0.70" arrival="2432.00" arrivalLane="four-arm2WB_0" arrivalPos="759.55" arrivalSpeed="15.09" duration="585.00" routeLength="1885.86" waitingTime="453.00" waitingCount="2" stopTime="0.00" timeLoss="467.24" rerouteNo="0" devices="tripinfo_2" vType="DEFAULT_VEHTYPE" speedFactor="1.15" vaporized=""/>
    <tripinfo id="10" depart="2015.00" departLane="SEB2T_0" departPos="5.10" departSpeed="14.16" departDelay="-0.92" arrival="2437.00" arrivalLane="four-arm2WB_0" arrivalPos="759.55" arrivalSpeed="13.81" duration="422.00" routeLength="2184.97" waitingTime="242.00" waitingCount="3" stopTime="0.00" timeLoss="265.69" rerouteNo="0" devices="tripinfo_10" vType="DEFAULT_VEHTYPE" speedFactor="1.02" vaporized=""/>
    <tripinfo id="61" depart="2341.00" departLane="NWB2four-arm_LTL_0" departPos="5.10" departSpeed="12.51" departDelay="-0.13" arrival="2464.00" arrivalLane="incoming2EB_0" arrivalPos="304.25" arrivalSpeed="11.84" duration="123.00" routeLength="1431.94" waitingTime="0.00" waitingCount="0" stopTime="0.00" timeLoss="7.24" rerouteNo="0" devices="tripinfo_61" vType="DEFAULT_VEHTYPE" speedFactor="0.90" vaporized=""/>
    <tripinfo id="28" depart="2116.00" departLane="WB2four-arm_LTL_1" departPos="5.10" departSpeed="16.39" departDelay="-0.75" arrival="2474.00" arrivalLane="T2SEB_0" arrivalPos="296.94" arrivalSpeed="15.69" duration="358.00" routeLength="2221.49" waitingTime="208.00" waitingCount="1" stopTime="0.00" timeLoss="221.11" rerouteNo="0" devices="tripinfo_28" vType="DEFAULT_VEHTYPE" speedFactor="1.18" vaporized=""/>
    <tripinfo id="43" depart="2104.00" departLane="WB2four-arm_LTL_0" departPos="5.10" departSpeed="13.52" departDelay="-0.54" arrival="2491.00" arrivalLane="four-arm2NWB_0" arrivalPos="313.79" arrivalSpeed="13.51" duration="387.00" routeLength="1068.24" waitingTime="301.00" waitingCount="1" stopTime="0.00" timeLoss="308.20" rerouteNo="0" devices="tripinfo_43" vType="DEFAULT_VEHTYPE" speedFactor="0.97" vaporized=""/>
    <tripinfo id="32" depart="2169.00" departLane="WB2four-arm_LTL_0" departPos="5.10" departSpeed="12.51" departDelay="-0.75" arrival="2506.00" arrivalLane="T2SEB_0" arrivalPos="296.94" arrivalSpeed="11.65" duration="337.00" routeLength="2221.49" waitingTime="140.00" waitingCount="1" stopTime="0.00" timeLoss="157.73" rerouteNo="0" devices="tripinfo_32" vType="DEFAULT_VEHTYPE" speedFactor="0.90" vaporized=""/>
    <tripinfo id="63" depart="2442.00" departLane="NWB2four-arm_LTL_0" departPos="5.10" departSpeed="11.87" departDelay="-0.60" arrival="2594.00" arrivalLane="incoming2EB_0" arrivalPos="304.25" arrivalSpeed="11.86" duration="152.00" routeLength="1431.94" waitingTime="17.00" waitingCount="1" stopTime="0.00" timeLoss="29.70" rerouteNo="0" devices="tripinfo_63" vType="DEFAULT_VEHTYPE" speedFactor="0.85" vaporized=""/>
    <tripinfo id="9" depart="2300.00" departLane="EB2incoming_0" departPos="5.10" departSpeed="15.11" departDelay="-0.46" arrival="2653.00" arrivalLane="four-arm2WB_0" arrivalPos="759.55" arrivalSpeed="14.05" duration="353.00" routeLength="1879.21" waitingTime="212.00" waitingCount="1" stopTime="0.00" timeLoss="228.33" rerouteNo="0" devices="tripinfo_9" vType="DEFAULT_VEHTYPE" speedFactor="1.09" vaporized=""/>
    <tripinfo id="14" depart="2248.00" departLane="SEB2T_0" departPos="5.10" departSpeed="15.17" departDelay="-0.33" arrival="2655.00" arrivalLane="four-arm2WB_0" arrivalPos="759.55" arrivalSpeed="15.16" duration="407.00" routeLength="2184.97" waitingTime="238.00" waitingCount="3" stopTime="0.00" timeLoss="261.46" rerouteNo="0" devices="tripinfo_14" vType="DEFAULT_VEHTYPE" speedFactor="1.09" vaporized=""/>
    <tripinfo id="18" depart="2239.00" departLane="WB2four-arm_LTL_0" departPos="5.10" departSpeed="13.29" departDelay="-0.54" arrival="2693.00" arrivalLane="incoming2EB_0" arrivalPos="304.25" arrivalSpeed="13.14" duration="454.00" routeLength="1879.16" waitingTime="289.00" waitingCount="3" stopTime="0.00" timeLoss="312.65" rerouteNo="0" devices="tripinfo_18" vType="DEFAULT_VEHTYPE" speedFactor="0.96" vaporized=""/>
    <tripinfo id="34" depart="2279.00" departLane="WB2four-arm_LTL_0" departPos="5.10" departSpeed="14.49" departDelay="-0.74" arrival="2709.00" arrivalLane="T2SEB_0" arrivalPos="296.94" arrivalSpeed="14.11" duration="430.00" routeLength="2221.49" waitingTime="255.00" waitingCount="2" stopTime="0.00" timeLoss="275.11" rerouteNo="0" devices="tripinfo_34" vType="DEFAULT_VEHTYPE" speedFactor="1.04" vaporized=""/>
    <tripinfo id="41" depart="2138.00" departLane="WB2four-arm_LTL_0" departPos="5.10" departSpeed="15.31" departDelay="-0.70" arrival="2793.00" arrivalLane="four-arm2NWB_0" arrivalPos="313.79" arrivalSpeed="15.14" duration="655.00" routeLength="1068.24" waitingTime="576.00" waitingCount="2" stopTime="0.00" timeLoss="584.81" rerouteNo="0" devices="tripinfo_41" vType="DEFAULT_VEHTYPE" speedFactor="1.10" vaporized=""/>
    <tripinfo id="60" depart="2573.00" departLane="NWB2four-arm_LTL_0" departPos="5.10" departSpeed="14.12" departDelay="-0.19" arrival="2797.00" arrivalLane="incoming2EB_0" arrivalPos="304.25" arrivalSpeed="12.83" duration="224.00" routeLength="1431.94" waitingTime="112.00" waitingCount="1" stopTime="0.00" timeLoss="121.53" rerouteNo="0" devices="tripinfo_60" vType="DEFAULT_VEHTYPE" speedFactor="1.02" vaporized=""/>
    <tripinfo id="48" depart="2807.00" departLane="NWB2four-arm_LTL_0" departPos="5.10" departSpeed="13.93" departDelay="-0.46" arrival="2891.00" arrivalLane="four-arm2WB_0" arrivalPos="759.55" arrivalSpeed="13.76" duration="84.00" routeLength="1077.79" waitingTime="0.00" waitingCount="0" stopTime="0.00" timeLoss="6.02" rerouteNo="0" devices="tripinfo_48" vType="DEFAULT_VEHTYPE" speedFactor="1.00" vaporized=""/>
    <tripinfo id="19" depart="2436.00" departLane="WB2four-arm_LTL_0" departPos="5.10" departSpeed="11.81" departDelay="-0.32" arrival="2927.00" arrivalLane="incoming2EB_0" arrivalPos="304.25" arrivalSpeed="10.58" duration="491.00" routeLength="1879.16" waitingTime="308.00" waitingCount="3" stopTime="0.00" timeLoss="331.85" rerouteNo="0" devices="tripinfo_19" vType="DEFAULT_VEHTYPE" speedFactor="0.85" vaporized=""/>
    <tripinfo id="27" depart="2313.00" departLane="WB2four-arm_LTL_1" departPos="5.10" departSpeed="13.85" departDelay="-0.26" arrival="2937.00" arrivalLane="T2SEB_0" arrivalPos="296.94" arrivalSpeed="12.77" duration="624.00" routeLength="2221.49" waitingTime="433.00" waitingCount="3" stopTime="0.00" timeLoss="462.01" rerouteNo="0" devices="tripinfo_27" vType="DEFAULT_VEHTYPE" speedFactor="1.00" vaporized=""/>
    <tripinfo id="44" depart="2198.00" departLane="WB2four-arm_LTL_0" departPos="5.10" departSpeed="14.31" departDelay="-0.82" arrival="3099.00" arrivalLane="four-arm2NWB_0" arrivalPos="313.79" arrivalSpeed="13.46" duration="901.00" routeLength="1068.24" waitingTime="814.00" waitingCount="3" stopTime="0.00" timeLoss="826.39" rerouteNo="0" devices="tripinfo_44" vType="DEFAULT_VEHTYPE" speedFactor="1.03" vaporized=""/>
    <tripinfo id="0" depart="2488.00" departLane="NEB2incoming_LTL_0" departPos="5.10" departSpeed="16.24" departDelay="-0.08" arrival="3129.00" arrivalLane="four-arm2WB_0" arrivalPos="759.55" arrivalSpeed="15.68" duration="641.00" routeLength="1885.86" waitingTime="511.00" waitingCount="2" stopTime="0.00" timeLoss="524.57" rerouteNo="0" devices="tripinfo_0" vType="DEFAULT_VEHTYPE" speedFactor="1.17" vaporized=""/>
    <tripinfo id="6" depart="2852.00" departLane="EB2incoming_0" departPos="5.10" departSpeed="13.83" departDelay="-0.53" arrival="3139.00" arrivalLane="four-arm2WB_0" arrivalPos="759.55" arrivalSpeed="13.61" duration="287.00" routeLength="1879.21" waitingTime="139.00" waitingCount="1" stopTime="0.00" timeLoss="151.15" rerouteNo="0" devices="tripinfo_6" vType="DEFAULT_VEHTYPE" speedFactor="1.00" vaporized=""/>
    <tripinfo id="29" depart="3001.00" departLane="WB2four-arm_LTL_0" departPos="5.10" departSpeed="13.47" departDelay="-0.37" arrival="3194.00" arrivalLane="T2SEB_0" arrivalPos="296.94" arrivalSpeed="12.92" duration="193.00" routeLength="2221.49" waitingTime="13.00" waitingCount="1" stopTime="0.00" timeLoss="26.82" rerouteNo="0" devices="tripinfo_29" vType="DEFAULT_VEHTYPE" speedFactor="0.97" vaporized=""/>
    <tripinfo id="64" depart="3225.00" departLane="NWB2four-arm_LTL_0" departPos="5.10" departSpeed="15.55" departDelay="-0.98" arrival="3324.00" arrivalLane="incoming2EB_0" arrivalPos="304.25" arrivalSpeed="14.31" duration="99.00" routeLength="1431.94" waitingTime="0.00" waitingCount="0" stopTime="0.00" timeLoss="5.50" rerouteNo="0" devices="tripinfo_64" vType="DEFAULT_VEHTYPE" speedFactor="1.12" vaporized=""/>
    <tripinfo id="11" depart="2901.00" departLane="SEB2T_0" departPos="5.10" departSpeed="15.87" departDelay="-0.62" arrival="3391.00" arrivalLane="four-arm2WB_0" arrivalPos="759.55" arrivalSpeed="15.66" duration="490.00" routeLength="2184.97" waitingTime="325.00" waitingCount="3" stopTime="0.00" timeLoss="350.68" rerouteNo="0" devices="tripinfo_11" vType="DEFAULT_VEHTYPE" speedFactor="1.14" vaporized=""/>
    <tripinfo id="4" depart="2950.00" departLane="NEB2incoming_LTL_0" departPos="5.10" departSpeed="14.22" departDelay="-0.16" arrival="3398.00" arrivalLane="four-arm2WB_0" arrivalPos="759.55" arrivalSpeed="14.07" duration="448.00" routeLength="1885.86" waitingTime="301.00" waitingCount="1" stopTime="0.00" timeLoss="315.25" rerouteNo="0" devices="tripinfo_4" vType="DEFAULT_VEHTYPE" speedFactor="1.02" vaporized=""/>
    <tripinfo id="39" depart="2359.00" departLane="WB2four-arm_LTL_1" departPos="5.10" departSpeed="12.18" departDelay="-0.25" arrival="3407.00" arrivalLane="four-arm2NWB_0" arrivalPos="313.79" arrivalSpeed="11.37" duration="1048.00" routeLength="1068.24" waitingTime="942.00" waitingCount="4" stopTime="0.00" timeLoss="960.24" rerouteNo="0" devices="tripinfo_39" vType="DEFAULT_VEHTYPE" speedFactor="0.88" vaporized=""/>
    <tripinfo id="21" depart="3181.00" departLane="WB2four-arm_LTL_0" departPos="5.10" departSpeed="15.04" departDelay="-0.59" arrival="3420.00" arrivalLane="incoming2EB_0" arrivalPos="304.25" arrivalSpeed="14.52" duration="239.00" routeLength="1879.16" waitingTime="99.00" waitingCount="1" stopTime="0.00" timeLoss="113.35" rerouteNo="0" devices="tripinfo_21" vType="DEFAULT_VEHTYPE" speedFactor="1.08" vaporized=""/>
    <tripinfo id="50" depart="3425.00" departLane="NWB2four-arm_LTL_0" departPos="5.10" departSpeed="13.71" departDelay="-0.09" arrival="3511.00" arrivalLane="four-arm2WB_0" arrivalPos="759.55" arrivalSpeed="13.62" duration="86.00" routeLength="1077.79" waitingTime="0.00" waitingCount="0" stopTime="0.00" timeLoss="6.25" rerouteNo="0" devices="tripinfo_50" vType="DEFAULT_VEHTYPE" speedFactor="0.99" vaporized=""/>
    <tripinfo id="35" depart="2587.00" departLane="WB2four-arm_LTL_1" departPos="5.10" departSpeed="15.22" departDelay="-0.01" arrival="3706.00" arrivalLane="four-arm2NWB_0" arrivalPos="313.79" arrivalSpeed="14.55" duration="1119.00" routeLength="1068.24" waitingTime="1033.00" waitingCount="4" stopTime="0.00" timeLoss="1048.40" rerouteNo="0" devices="tripinfo_35" vType="DEFAULT_VEHTYPE" speedFactor="1.10" vaporized=""/>
    <tripinfo id="30" depart="3363.00" departLane="WB2four-arm_LTL_0" departPos="5.10" departSpeed="14.11" departDelay="-0.45" arrival="3749.00" arrivalLane="T2SEB_0" arrivalPos="296.94" arrivalSpeed="14.03" duration="386.00" routeLength="2221.49" waitingTime="214.00" waitingCount="1" stopTime="0.00" timeLoss="227.14" rerouteNo="0" devices="tripinfo_30" vType="DEFAULT_VEHTYPE" speedFactor="1.02" vaporized=""/>
    <tripinfo id="36" depart="2896.00" departLane="WB2four-arm_LTL_0" departPos="5.10" departSpeed="12.49" departDelay="-0.69" arrival="3772.00" arrivalLane="four-arm2NWB_0" arrivalPos="313.79" arrivalSpeed="12.09" duration="876.00" routeLength="1087.89" waitingTime="766.00" waitingCount="4" stopTime="0.00" timeLoss="787.32" rerouteNo="0" devices="tripinfo_36" vType="DEFAULT_VEHTYPE" speedFactor="0.90" vaporized=""/>
    <tripinfo id="49" depart="3573.00" departLane="NWB2four-arm_LTL_0" departPos="5.10" departSpeed="13.02" departDelay="-0.33" arrival="3912.00" arrivalLane="four-arm2WB_0" arrivalPos="759.55" arrivalSpeed="12.29" duration="339.00" routeLength="1077.79" waitingTime="244.00" waitingCount="1" stopTime="0.00" timeLoss="254.52" rerouteNo="0" devices="tripinfo_49" vType="DEFAULT_VEHTYPE" speedFactor="0.94" vaporized=""/>
</tripinfos>
